+ 0.2 2 0 ping 1500 ------- 0 2.0 4.0 -1 0
- 0.2 2 0 ping 1500 ------- 0 2.0 4.0 -1 0
r 0.21012 2 0 ping 1500 ------- 0 2.0 4.0 -1 0
+ 0.21012 0 1 ping 1500 ------- 0 2.0 4.0 -1 0
- 0.21012 0 1 ping 1500 ------- 0 2.0 4.0 -1 0
r 0.22024 0 1 ping 1500 ------- 0 2.0 4.0 -1 0
+ 0.22024 1 4 ping 1500 ------- 0 2.0 4.0 -1 0
- 0.22024 1 4 ping 1500 ------- 0 2.0 4.0 -1 0
r 0.23036 1 4 ping 1500 ------- 0 2.0 4.0 -1 0
+ 0.23036 4 1 ping 64 ------- 0 4.0 2.0 -1 1
- 0.23036 4 1 ping 64 ------- 0 4.0 2.0 -1 1
r 0.240365 4 1 ping 64 ------- 0 4.0 2.0 -1 1
+ 0.240365 1 0 ping 64 ------- 0 4.0 2.0 -1 1
- 0.240365 1 0 ping 64 ------- 0 4.0 2.0 -1 1
r 0.25037 1 0 ping 64 ------- 0 4.0 2.0 -1 1
+ 0.25037 0 2 ping 64 ------- 0 4.0 2.0 -1 1
- 0.25037 0 2 ping 64 ------- 0 4.0 2.0 -1 1
r 0.260375 0 2 ping 64 ------- 0 4.0 2.0 -1 1
+ 0.4 4 1 ping 64 ------- 0 4.0 2.0 -1 2
- 0.4 4 1 ping 64 ------- 0 4.0 2.0 -1 2
r 0.410005 4 1 ping 64 ------- 0 4.0 2.0 -1 2
+ 0.410005 1 0 ping 64 ------- 0 4.0 2.0 -1 2
- 0.410005 1 0 ping 64 ------- 0 4.0 2.0 -1 2
r 0.42001 1 0 ping 64 ------- 0 4.0 2.0 -1 2
+ 0.42001 0 2 ping 64 ------- 0 4.0 2.0 -1 2
- 0.42001 0 2 ping 64 ------- 0 4.0 2.0 -1 2
r 0.430015 0 2 ping 64 ------- 0 4.0 2.0 -1 2
+ 0.430015 2 0 ping 1500 ------- 0 2.0 4.0 -1 3
- 0.430015 2 0 ping 1500 ------- 0 2.0 4.0 -1 3
r 0.440135 2 0 ping 1500 ------- 0 2.0 4.0 -1 3
+ 0.440135 0 1 ping 1500 ------- 0 2.0 4.0 -1 3
- 0.440135 0 1 ping 1500 ------- 0 2.0 4.0 -1 3
r 0.450255 0 1 ping 1500 ------- 0 2.0 4.0 -1 3
+ 0.450255 1 4 ping 1500 ------- 0 2.0 4.0 -1 3
- 0.450255 1 4 ping 1500 ------- 0 2.0 4.0 -1 3
r 0.460375 1 4 ping 1500 ------- 0 2.0 4.0 -1 3
+ 0.6 3 0 ping 1500 ------- 0 3.0 5.0 -1 4
- 0.6 3 0 ping 1500 ------- 0 3.0 5.0 -1 4
r 0.61012 3 0 ping 1500 ------- 0 3.0 5.0 -1 4
+ 0.61012 0 1 ping 1500 ------- 0 3.0 5.0 -1 4
- 0.61012 0 1 ping 1500 ------- 0 3.0 5.0 -1 4
r 0.62024 0 1 ping 1500 ------- 0 3.0 5.0 -1 4
+ 0.62024 1 5 ping 1500 ------- 0 3.0 5.0 -1 4
- 0.62024 1 5 ping 1500 ------- 0 3.0 5.0 -1 4
r 0.63036 1 5 ping 1500 ------- 0 3.0 5.0 -1 4
+ 0.63036 5 1 ping 64 ------- 0 5.0 3.0 -1 5
- 0.63036 5 1 ping 64 ------- 0 5.0 3.0 -1 5
r 0.640365 5 1 ping 64 ------- 0 5.0 3.0 -1 5
+ 0.640365 1 0 ping 64 ------- 0 5.0 3.0 -1 5
- 0.640365 1 0 ping 64 ------- 0 5.0 3.0 -1 5
r 0.65037 1 0 ping 64 ------- 0 5.0 3.0 -1 5
+ 0.65037 0 3 ping 64 ------- 0 5.0 3.0 -1 5
- 0.65037 0 3 ping 64 ------- 0 5.0 3.0 -1 5
r 0.660375 0 3 ping 64 ------- 0 5.0 3.0 -1 5
+ 0.8 5 1 ping 64 ------- 0 5.0 3.0 -1 6
- 0.8 5 1 ping 64 ------- 0 5.0 3.0 -1 6
r 0.810005 5 1 ping 64 ------- 0 5.0 3.0 -1 6
+ 0.810005 1 0 ping 64 ------- 0 5.0 3.0 -1 6
- 0.810005 1 0 ping 64 ------- 0 5.0 3.0 -1 6
r 0.82001 1 0 ping 64 ------- 0 5.0 3.0 -1 6
+ 0.82001 0 3 ping 64 ------- 0 5.0 3.0 -1 6
- 0.82001 0 3 ping 64 ------- 0 5.0 3.0 -1 6
r 0.830015 0 3 ping 64 ------- 0 5.0 3.0 -1 6
+ 0.830015 3 0 ping 1500 ------- 0 3.0 5.0 -1 7
- 0.830015 3 0 ping 1500 ------- 0 3.0 5.0 -1 7
r 0.840135 3 0 ping 1500 ------- 0 3.0 5.0 -1 7
+ 0.840135 0 1 ping 1500 ------- 0 3.0 5.0 -1 7
- 0.840135 0 1 ping 1500 ------- 0 3.0 5.0 -1 7
r 0.850255 0 1 ping 1500 ------- 0 3.0 5.0 -1 7
+ 0.850255 1 5 ping 1500 ------- 0 3.0 5.0 -1 7
- 0.850255 1 5 ping 1500 ------- 0 3.0 5.0 -1 7
r 0.860375 1 5 ping 1500 ------- 0 3.0 5.0 -1 7
