h 0.1 0 6 tcp 40 ------- 0 0.0 1.0 0 0
+ 0.11 0 6 tcp 40 ------- 0 0.0 1.0 0 0
- 0.11 0 6 tcp 40 ------- 0 0.0 1.0 0 0
r 0.120009 6 1 tcp 40 ------- 0 0.0 1.0 0 0
h 0.120009 1 6 ack 40 ------- 0 1.0 0.0 0 1
+ 0.130009 1 6 ack 40 ------- 0 1.0 0.0 0 1
- 0.130009 1 6 ack 40 ------- 0 1.0 0.0 0 1
r 0.140018 6 0 ack 40 ------- 0 1.0 0.0 0 1
h 0.140018 0 6 tcp 1540 ------- 0 0.0 1.0 1 2
h 0.140018 0 6 tcp 1540 ------- 0 0.0 1.0 2 3
+ 0.150018 0 6 tcp 1540 ------- 0 0.0 1.0 1 2
- 0.150018 0 6 tcp 1540 ------- 0 0.0 1.0 1 2
+ 0.150018 0 6 tcp 1540 ------- 0 0.0 1.0 2 3
- 0.150144 0 6 tcp 1540 ------- 0 0.0 1.0 2 3
r 0.160147 6 1 tcp 1540 ------- 0 0.0 1.0 1 2
h 0.160147 1 6 ack 40 ------- 0 1.0 0.0 1 4
r 0.160272 6 1 tcp 1540 ------- 0 0.0 1.0 2 3
h 0.160272 1 6 ack 40 ------- 0 1.0 0.0 2 5
+ 0.170147 1 6 ack 40 ------- 0 1.0 0.0 1 4
- 0.170147 1 6 ack 40 ------- 0 1.0 0.0 1 4
+ 0.170272 1 6 ack 40 ------- 0 1.0 0.0 2 5
- 0.170272 1 6 ack 40 ------- 0 1.0 0.0 2 5
r 0.180156 6 0 ack 40 ------- 0 1.0 0.0 1 4
h 0.180156 0 6 tcp 1540 ------- 0 0.0 1.0 3 6
h 0.180156 0 6 tcp 1540 ------- 0 0.0 1.0 4 7
r 0.180281 6 0 ack 40 ------- 0 1.0 0.0 2 5
h 0.180281 0 6 tcp 1540 ------- 0 0.0 1.0 5 8
h 0.180281 0 6 tcp 1540 ------- 0 0.0 1.0 6 9
+ 0.190156 0 6 tcp 1540 ------- 0 0.0 1.0 3 6
- 0.190156 0 6 tcp 1540 ------- 0 0.0 1.0 3 6
+ 0.190156 0 6 tcp 1540 ------- 0 0.0 1.0 4 7
+ 0.190281 0 6 tcp 1540 ------- 0 0.0 1.0 5 8
+ 0.190281 0 6 tcp 1540 ------- 0 0.0 1.0 6 9
- 0.190281 0 6 tcp 1540 ------- 0 0.0 1.0 4 7
- 0.190406 0 6 tcp 1540 ------- 0 0.0 1.0 5 8
- 0.190532 0 6 tcp 1540 ------- 0 0.0 1.0 6 9
r 0.200284 6 1 tcp 1540 ------- 0 0.0 1.0 3 6
h 0.200284 1 6 ack 40 ------- 0 1.0 0.0 3 10
r 0.200409 6 1 tcp 1540 ------- 0 0.0 1.0 4 7
h 0.200409 1 6 ack 40 ------- 0 1.0 0.0 4 11
r 0.200535 6 1 tcp 1540 ------- 0 0.0 1.0 5 8
h 0.200535 1 6 ack 40 ------- 0 1.0 0.0 5 12
r 0.20066 6 1 tcp 1540 ------- 0 0.0 1.0 6 9
h 0.20066 1 6 ack 40 ------- 0 1.0 0.0 6 13
+ 0.210284 1 6 ack 40 ------- 0 1.0 0.0 3 10
- 0.210284 1 6 ack 40 ------- 0 1.0 0.0 3 10
+ 0.210409 1 6 ack 40 ------- 0 1.0 0.0 4 11
- 0.210409 1 6 ack 40 ------- 0 1.0 0.0 4 11
+ 0.210535 1 6 ack 40 ------- 0 1.0 0.0 5 12
- 0.210535 1 6 ack 40 ------- 0 1.0 0.0 5 12
+ 0.21066 1 6 ack 40 ------- 0 1.0 0.0 6 13
- 0.21066 1 6 ack 40 ------- 0 1.0 0.0 6 13
r 0.220293 6 0 ack 40 ------- 0 1.0 0.0 3 10
r 0.220418 6 0 ack 40 ------- 0 1.0 0.0 4 11
r 0.220544 6 0 ack 40 ------- 0 1.0 0.0 5 12
r 0.220669 6 0 ack 40 ------- 0 1.0 0.0 6 13
h 0.3 0 6 tcp 1540 ------- 0 0.0 1.0 7 14
h 0.3 0 6 tcp 1540 ------- 0 0.0 1.0 8 15
h 0.3 0 6 tcp 1540 ------- 0 0.0 1.0 9 16
h 0.3 0 6 tcp 1540 ------- 0 0.0 1.0 10 17
h 0.3 0 6 tcp 1540 ------- 0 0.0 1.0 11 18
h 0.3 0 6 tcp 1540 ------- 0 0.0 1.0 12 19
h 0.3 0 6 tcp 1540 ------- 0 0.0 1.0 13 20
h 0.3 0 6 tcp 1540 ------- 0 0.0 1.0 14 21
+ 0.31 0 6 tcp 1540 ------- 0 0.0 1.0 7 14
- 0.31 0 6 tcp 1540 ------- 0 0.0 1.0 7 14
+ 0.31 0 6 tcp 1540 ------- 0 0.0 1.0 8 15
+ 0.31 0 6 tcp 1540 ------- 0 0.0 1.0 9 16
+ 0.31 0 6 tcp 1540 ------- 0 0.0 1.0 10 17
+ 0.31 0 6 tcp 1540 ------- 0 0.0 1.0 11 18
+ 0.31 0 6 tcp 1540 ------- 0 0.0 1.0 12 19
+ 0.31 0 6 tcp 1540 ------- 0 0.0 1.0 13 20
+ 0.31 0 6 tcp 1540 ------- 0 0.0 1.0 14 21
- 0.310125 0 6 tcp 1540 ------- 0 0.0 1.0 8 15
- 0.310251 0 6 tcp 1540 ------- 0 0.0 1.0 9 16
- 0.310376 0 6 tcp 1540 ------- 0 0.0 1.0 10 17
- 0.310501 0 6 tcp 1540 ------- 0 0.0 1.0 11 18
- 0.310626 0 6 tcp 1540 ------- 0 0.0 1.0 12 19
- 0.310752 0 6 tcp 1540 ------- 0 0.0 1.0 13 20
- 0.310877 0 6 tcp 1540 ------- 0 0.0 1.0 14 21
r 0.320128 6 1 tcp 1540 ------- 0 0.0 1.0 7 14
h 0.320128 1 6 ack 40 ------- 0 1.0 0.0 7 22
r 0.320254 6 1 tcp 1540 ------- 0 0.0 1.0 8 15
h 0.320254 1 6 ack 40 ------- 0 1.0 0.0 8 23
r 0.320379 6 1 tcp 1540 ------- 0 0.0 1.0 9 16
h 0.320379 1 6 ack 40 ------- 0 1.0 0.0 9 24
r 0.320504 6 1 tcp 1540 ------- 0 0.0 1.0 10 17
h 0.320504 1 6 ack 40 ------- 0 1.0 0.0 10 25
r 0.320629 6 1 tcp 1540 ------- 0 0.0 1.0 11 18
h 0.320629 1 6 ack 40 ------- 0 1.0 0.0 11 26
r 0.320755 6 1 tcp 1540 ------- 0 0.0 1.0 12 19
h 0.320755 1 6 ack 40 ------- 0 1.0 0.0 12 27
r 0.32088 6 1 tcp 1540 ------- 0 0.0 1.0 13 20
h 0.32088 1 6 ack 40 ------- 0 1.0 0.0 13 28
r 0.321005 6 1 tcp 1540 ------- 0 0.0 1.0 14 21
h 0.321005 1 6 ack 40 ------- 0 1.0 0.0 14 29
+ 0.330128 1 6 ack 40 ------- 0 1.0 0.0 7 22
- 0.330128 1 6 ack 40 ------- 0 1.0 0.0 7 22
+ 0.330254 1 6 ack 40 ------- 0 1.0 0.0 8 23
- 0.330254 1 6 ack 40 ------- 0 1.0 0.0 8 23
+ 0.330379 1 6 ack 40 ------- 0 1.0 0.0 9 24
- 0.330379 1 6 ack 40 ------- 0 1.0 0.0 9 24
+ 0.330504 1 6 ack 40 ------- 0 1.0 0.0 10 25
- 0.330504 1 6 ack 40 ------- 0 1.0 0.0 10 25
+ 0.330629 1 6 ack 40 ------- 0 1.0 0.0 11 26
- 0.330629 1 6 ack 40 ------- 0 1.0 0.0 11 26
+ 0.330755 1 6 ack 40 ------- 0 1.0 0.0 12 27
- 0.330755 1 6 ack 40 ------- 0 1.0 0.0 12 27
+ 0.33088 1 6 ack 40 ------- 0 1.0 0.0 13 28
- 0.33088 1 6 ack 40 ------- 0 1.0 0.0 13 28
+ 0.331005 1 6 ack 40 ------- 0 1.0 0.0 14 29
- 0.331005 1 6 ack 40 ------- 0 1.0 0.0 14 29
r 0.340137 6 0 ack 40 ------- 0 1.0 0.0 7 22
h 0.340137 0 6 tcp 1540 ------- 0 0.0 1.0 15 30
h 0.340137 0 6 tcp 1540 ------- 0 0.0 1.0 16 31
r 0.340263 6 0 ack 40 ------- 0 1.0 0.0 8 23
h 0.340263 0 6 tcp 1540 ------- 0 0.0 1.0 17 32
h 0.340263 0 6 tcp 1540 ------- 0 0.0 1.0 18 33
r 0.340388 6 0 ack 40 ------- 0 1.0 0.0 9 24
h 0.340388 0 6 tcp 1540 ------- 0 0.0 1.0 19 34
h 0.340388 0 6 tcp 1540 ------- 0 0.0 1.0 20 35
r 0.340513 6 0 ack 40 ------- 0 1.0 0.0 10 25
h 0.340513 0 6 tcp 1540 ------- 0 0.0 1.0 21 36
h 0.340513 0 6 tcp 1540 ------- 0 0.0 1.0 22 37
r 0.340639 6 0 ack 40 ------- 0 1.0 0.0 11 26
h 0.340639 0 6 tcp 1540 ------- 0 0.0 1.0 23 38
h 0.340639 0 6 tcp 1540 ------- 0 0.0 1.0 24 39
r 0.340764 6 0 ack 40 ------- 0 1.0 0.0 12 27
h 0.340764 0 6 tcp 1540 ------- 0 0.0 1.0 25 40
h 0.340764 0 6 tcp 1540 ------- 0 0.0 1.0 26 41
r 0.340889 6 0 ack 40 ------- 0 1.0 0.0 13 28
h 0.340889 0 6 tcp 1540 ------- 0 0.0 1.0 27 42
h 0.340889 0 6 tcp 1540 ------- 0 0.0 1.0 28 43
r 0.341014 6 0 ack 40 ------- 0 1.0 0.0 14 29
h 0.341014 0 6 tcp 1540 ------- 0 0.0 1.0 29 44
h 0.341014 0 6 tcp 1540 ------- 0 0.0 1.0 30 45
+ 0.350137 0 6 tcp 1540 ------- 0 0.0 1.0 15 30
- 0.350137 0 6 tcp 1540 ------- 0 0.0 1.0 15 30
+ 0.350137 0 6 tcp 1540 ------- 0 0.0 1.0 16 31
+ 0.350263 0 6 tcp 1540 ------- 0 0.0 1.0 17 32
+ 0.350263 0 6 tcp 1540 ------- 0 0.0 1.0 18 33
- 0.350263 0 6 tcp 1540 ------- 0 0.0 1.0 16 31
+ 0.350388 0 6 tcp 1540 ------- 0 0.0 1.0 19 34
+ 0.350388 0 6 tcp 1540 ------- 0 0.0 1.0 20 35
- 0.350388 0 6 tcp 1540 ------- 0 0.0 1.0 17 32
+ 0.350513 0 6 tcp 1540 ------- 0 0.0 1.0 21 36
+ 0.350513 0 6 tcp 1540 ------- 0 0.0 1.0 22 37
- 0.350513 0 6 tcp 1540 ------- 0 0.0 1.0 18 33
+ 0.350639 0 6 tcp 1540 ------- 0 0.0 1.0 23 38
+ 0.350639 0 6 tcp 1540 ------- 0 0.0 1.0 24 39
- 0.350639 0 6 tcp 1540 ------- 0 0.0 1.0 19 34
+ 0.350764 0 6 tcp 1540 ------- 0 0.0 1.0 25 40
+ 0.350764 0 6 tcp 1540 ------- 0 0.0 1.0 26 41
- 0.350764 0 6 tcp 1540 ------- 0 0.0 1.0 20 35
+ 0.350889 0 6 tcp 1540 ------- 0 0.0 1.0 27 42
+ 0.350889 0 6 tcp 1540 ------- 0 0.0 1.0 28 43
- 0.350889 0 6 tcp 1540 ------- 0 0.0 1.0 21 36
+ 0.351014 0 6 tcp 1540 ------- 0 0.0 1.0 29 44
+ 0.351014 0 6 tcp 1540 ------- 0 0.0 1.0 30 45
- 0.351014 0 6 tcp 1540 ------- 0 0.0 1.0 22 37
- 0.35114 0 6 tcp 1540 ------- 0 0.0 1.0 23 38
- 0.351265 0 6 tcp 1540 ------- 0 0.0 1.0 24 39
- 0.35139 0 6 tcp 1540 ------- 0 0.0 1.0 25 40
- 0.351516 0 6 tcp 1540 ------- 0 0.0 1.0 26 41
- 0.351641 0 6 tcp 1540 ------- 0 0.0 1.0 27 42
- 0.351766 0 6 tcp 1540 ------- 0 0.0 1.0 28 43
- 0.351891 0 6 tcp 1540 ------- 0 0.0 1.0 29 44
- 0.352017 0 6 tcp 1540 ------- 0 0.0 1.0 30 45
r 0.360266 6 1 tcp 1540 ------- 0 0.0 1.0 15 30
h 0.360266 1 6 ack 40 ------- 0 1.0 0.0 15 46
r 0.360391 6 1 tcp 1540 ------- 0 0.0 1.0 16 31
h 0.360391 1 6 ack 40 ------- 0 1.0 0.0 16 47
r 0.360516 6 1 tcp 1540 ------- 0 0.0 1.0 17 32
h 0.360516 1 6 ack 40 ------- 0 1.0 0.0 17 48
r 0.360642 6 1 tcp 1540 ------- 0 0.0 1.0 18 33
h 0.360642 1 6 ack 40 ------- 0 1.0 0.0 18 49
r 0.360767 6 1 tcp 1540 ------- 0 0.0 1.0 19 34
h 0.360767 1 6 ack 40 ------- 0 1.0 0.0 19 50
r 0.360892 6 1 tcp 1540 ------- 0 0.0 1.0 20 35
h 0.360892 1 6 ack 40 ------- 0 1.0 0.0 20 51
r 0.361017 6 1 tcp 1540 ------- 0 0.0 1.0 21 36
h 0.361017 1 6 ack 40 ------- 0 1.0 0.0 21 52
r 0.361143 6 1 tcp 1540 ------- 0 0.0 1.0 22 37
h 0.361143 1 6 ack 40 ------- 0 1.0 0.0 22 53
r 0.361268 6 1 tcp 1540 ------- 0 0.0 1.0 23 38
h 0.361268 1 6 ack 40 ------- 0 1.0 0.0 23 54
r 0.361393 6 1 tcp 1540 ------- 0 0.0 1.0 24 39
h 0.361393 1 6 ack 40 ------- 0 1.0 0.0 24 55
r 0.361519 6 1 tcp 1540 ------- 0 0.0 1.0 25 40
h 0.361519 1 6 ack 40 ------- 0 1.0 0.0 25 56
r 0.361644 6 1 tcp 1540 ------- 0 0.0 1.0 26 41
h 0.361644 1 6 ack 40 ------- 0 1.0 0.0 26 57
r 0.361769 6 1 tcp 1540 ------- 0 0.0 1.0 27 42
h 0.361769 1 6 ack 40 ------- 0 1.0 0.0 27 58
r 0.361894 6 1 tcp 1540 ------- 0 0.0 1.0 28 43
h 0.361894 1 6 ack 40 ------- 0 1.0 0.0 28 59
r 0.36202 6 1 tcp 1540 ------- 0 0.0 1.0 29 44
h 0.36202 1 6 ack 40 ------- 0 1.0 0.0 29 60
r 0.362145 6 1 tcp 1540 ------- 0 0.0 1.0 30 45
h 0.362145 1 6 ack 40 ------- 0 1.0 0.0 30 61
+ 0.370266 1 6 ack 40 ------- 0 1.0 0.0 15 46
- 0.370266 1 6 ack 40 ------- 0 1.0 0.0 15 46
+ 0.370391 1 6 ack 40 ------- 0 1.0 0.0 16 47
- 0.370391 1 6 ack 40 ------- 0 1.0 0.0 16 47
+ 0.370516 1 6 ack 40 ------- 0 1.0 0.0 17 48
- 0.370516 1 6 ack 40 ------- 0 1.0 0.0 17 48
+ 0.370642 1 6 ack 40 ------- 0 1.0 0.0 18 49
- 0.370642 1 6 ack 40 ------- 0 1.0 0.0 18 49
+ 0.370767 1 6 ack 40 ------- 0 1.0 0.0 19 50
- 0.370767 1 6 ack 40 ------- 0 1.0 0.0 19 50
+ 0.370892 1 6 ack 40 ------- 0 1.0 0.0 20 51
- 0.370892 1 6 ack 40 ------- 0 1.0 0.0 20 51
+ 0.371017 1 6 ack 40 ------- 0 1.0 0.0 21 52
- 0.371017 1 6 ack 40 ------- 0 1.0 0.0 21 52
+ 0.371143 1 6 ack 40 ------- 0 1.0 0.0 22 53
- 0.371143 1 6 ack 40 ------- 0 1.0 0.0 22 53
+ 0.371268 1 6 ack 40 ------- 0 1.0 0.0 23 54
- 0.371268 1 6 ack 40 ------- 0 1.0 0.0 23 54
+ 0.371393 1 6 ack 40 ------- 0 1.0 0.0 24 55
- 0.371393 1 6 ack 40 ------- 0 1.0 0.0 24 55
+ 0.371519 1 6 ack 40 ------- 0 1.0 0.0 25 56
- 0.371519 1 6 ack 40 ------- 0 1.0 0.0 25 56
+ 0.371644 1 6 ack 40 ------- 0 1.0 0.0 26 57
- 0.371644 1 6 ack 40 ------- 0 1.0 0.0 26 57
+ 0.371769 1 6 ack 40 ------- 0 1.0 0.0 27 58
- 0.371769 1 6 ack 40 ------- 0 1.0 0.0 27 58
+ 0.371894 1 6 ack 40 ------- 0 1.0 0.0 28 59
- 0.371894 1 6 ack 40 ------- 0 1.0 0.0 28 59
+ 0.37202 1 6 ack 40 ------- 0 1.0 0.0 29 60
- 0.37202 1 6 ack 40 ------- 0 1.0 0.0 29 60
+ 0.372145 1 6 ack 40 ------- 0 1.0 0.0 30 61
- 0.372145 1 6 ack 40 ------- 0 1.0 0.0 30 61
r 0.380275 6 0 ack 40 ------- 0 1.0 0.0 15 46
h 0.380275 0 6 tcp 1540 ------- 0 0.0 1.0 31 62
h 0.380275 0 6 tcp 1540 ------- 0 0.0 1.0 32 63
r 0.3804 6 0 ack 40 ------- 0 1.0 0.0 16 47
h 0.3804 0 6 tcp 1540 ------- 0 0.0 1.0 33 64
h 0.3804 0 6 tcp 1540 ------- 0 0.0 1.0 34 65
r 0.380525 6 0 ack 40 ------- 0 1.0 0.0 17 48
h 0.380525 0 6 tcp 1540 ------- 0 0.0 1.0 35 66
h 0.380525 0 6 tcp 1540 ------- 0 0.0 1.0 36 67
r 0.380651 6 0 ack 40 ------- 0 1.0 0.0 18 49
h 0.380651 0 6 tcp 1540 ------- 0 0.0 1.0 37 68
h 0.380651 0 6 tcp 1540 ------- 0 0.0 1.0 38 69
r 0.380776 6 0 ack 40 ------- 0 1.0 0.0 19 50
h 0.380776 0 6 tcp 1540 ------- 0 0.0 1.0 39 70
r 0.380901 6 0 ack 40 ------- 0 1.0 0.0 20 51
h 0.380901 0 6 tcp 1540 ------- 0 0.0 1.0 40 71
r 0.381027 6 0 ack 40 ------- 0 1.0 0.0 21 52
h 0.381027 0 6 tcp 1540 ------- 0 0.0 1.0 41 72
r 0.381152 6 0 ack 40 ------- 0 1.0 0.0 22 53
h 0.381152 0 6 tcp 1540 ------- 0 0.0 1.0 42 73
r 0.381277 6 0 ack 40 ------- 0 1.0 0.0 23 54
h 0.381277 0 6 tcp 1540 ------- 0 0.0 1.0 43 74
r 0.381402 6 0 ack 40 ------- 0 1.0 0.0 24 55
h 0.381402 0 6 tcp 1540 ------- 0 0.0 1.0 44 75
r 0.381528 6 0 ack 40 ------- 0 1.0 0.0 25 56
h 0.381528 0 6 tcp 1540 ------- 0 0.0 1.0 45 76
r 0.381653 6 0 ack 40 ------- 0 1.0 0.0 26 57
h 0.381653 0 6 tcp 1540 ------- 0 0.0 1.0 46 77
r 0.381778 6 0 ack 40 ------- 0 1.0 0.0 27 58
h 0.381778 0 6 tcp 1540 ------- 0 0.0 1.0 47 78
r 0.381904 6 0 ack 40 ------- 0 1.0 0.0 28 59
h 0.381904 0 6 tcp 1540 ------- 0 0.0 1.0 48 79
r 0.382029 6 0 ack 40 ------- 0 1.0 0.0 29 60
h 0.382029 0 6 tcp 1540 ------- 0 0.0 1.0 49 80
r 0.382154 6 0 ack 40 ------- 0 1.0 0.0 30 61
h 0.382154 0 6 tcp 1540 ------- 0 0.0 1.0 50 81
+ 0.390275 0 6 tcp 1540 ------- 0 0.0 1.0 31 62
- 0.390275 0 6 tcp 1540 ------- 0 0.0 1.0 31 62
+ 0.390275 0 6 tcp 1540 ------- 0 0.0 1.0 32 63
+ 0.3904 0 6 tcp 1540 ------- 0 0.0 1.0 33 64
+ 0.3904 0 6 tcp 1540 ------- 0 0.0 1.0 34 65
- 0.3904 0 6 tcp 1540 ------- 0 0.0 1.0 32 63
+ 0.390525 0 6 tcp 1540 ------- 0 0.0 1.0 35 66
+ 0.390525 0 6 tcp 1540 ------- 0 0.0 1.0 36 67
- 0.390525 0 6 tcp 1540 ------- 0 0.0 1.0 33 64
+ 0.390651 0 6 tcp 1540 ------- 0 0.0 1.0 37 68
+ 0.390651 0 6 tcp 1540 ------- 0 0.0 1.0 38 69
- 0.390651 0 6 tcp 1540 ------- 0 0.0 1.0 34 65
+ 0.390776 0 6 tcp 1540 ------- 0 0.0 1.0 39 70
- 0.390776 0 6 tcp 1540 ------- 0 0.0 1.0 35 66
+ 0.390901 0 6 tcp 1540 ------- 0 0.0 1.0 40 71
- 0.390901 0 6 tcp 1540 ------- 0 0.0 1.0 36 67
+ 0.391027 0 6 tcp 1540 ------- 0 0.0 1.0 41 72
- 0.391027 0 6 tcp 1540 ------- 0 0.0 1.0 37 68
+ 0.391152 0 6 tcp 1540 ------- 0 0.0 1.0 42 73
- 0.391152 0 6 tcp 1540 ------- 0 0.0 1.0 38 69
+ 0.391277 0 6 tcp 1540 ------- 0 0.0 1.0 43 74
- 0.391277 0 6 tcp 1540 ------- 0 0.0 1.0 39 70
+ 0.391402 0 6 tcp 1540 ------- 0 0.0 1.0 44 75
- 0.391402 0 6 tcp 1540 ------- 0 0.0 1.0 40 71
+ 0.391528 0 6 tcp 1540 ------- 0 0.0 1.0 45 76
- 0.391528 0 6 tcp 1540 ------- 0 0.0 1.0 41 72
+ 0.391653 0 6 tcp 1540 ------- 0 0.0 1.0 46 77
- 0.391653 0 6 tcp 1540 ------- 0 0.0 1.0 42 73
+ 0.391778 0 6 tcp 1540 ------- 0 0.0 1.0 47 78
- 0.391778 0 6 tcp 1540 ------- 0 0.0 1.0 43 74
+ 0.391904 0 6 tcp 1540 ------- 0 0.0 1.0 48 79
- 0.391904 0 6 tcp 1540 ------- 0 0.0 1.0 44 75
+ 0.392029 0 6 tcp 1540 ------- 0 0.0 1.0 49 80
- 0.392029 0 6 tcp 1540 ------- 0 0.0 1.0 45 76
+ 0.392154 0 6 tcp 1540 ------- 0 0.0 1.0 50 81
- 0.392154 0 6 tcp 1540 ------- 0 0.0 1.0 46 77
- 0.392279 0 6 tcp 1540 ------- 0 0.0 1.0 47 78
- 0.392405 0 6 tcp 1540 ------- 0 0.0 1.0 48 79
- 0.39253 0 6 tcp 1540 ------- 0 0.0 1.0 49 80
- 0.392655 0 6 tcp 1540 ------- 0 0.0 1.0 50 81
r 0.400403 6 1 tcp 1540 ------- 0 0.0 1.0 31 62
h 0.400403 1 6 ack 40 ------- 0 1.0 0.0 31 82
r 0.400528 6 1 tcp 1540 ------- 0 0.0 1.0 32 63
h 0.400528 1 6 ack 40 ------- 0 1.0 0.0 32 83
r 0.400654 6 1 tcp 1540 ------- 0 0.0 1.0 33 64
h 0.400654 1 6 ack 40 ------- 0 1.0 0.0 33 84
r 0.400779 6 1 tcp 1540 ------- 0 0.0 1.0 34 65
h 0.400779 1 6 ack 40 ------- 0 1.0 0.0 34 85
r 0.400904 6 1 tcp 1540 ------- 0 0.0 1.0 35 66
h 0.400904 1 6 ack 40 ------- 0 1.0 0.0 35 86
r 0.40103 6 1 tcp 1540 ------- 0 0.0 1.0 36 67
h 0.40103 1 6 ack 40 ------- 0 1.0 0.0 36 87
r 0.401155 6 1 tcp 1540 ------- 0 0.0 1.0 37 68
h 0.401155 1 6 ack 40 ------- 0 1.0 0.0 37 88
r 0.40128 6 1 tcp 1540 ------- 0 0.0 1.0 38 69
h 0.40128 1 6 ack 40 ------- 0 1.0 0.0 38 89
r 0.401405 6 1 tcp 1540 ------- 0 0.0 1.0 39 70
h 0.401405 1 6 ack 40 ------- 0 1.0 0.0 39 90
r 0.401531 6 1 tcp 1540 ------- 0 0.0 1.0 40 71
h 0.401531 1 6 ack 40 ------- 0 1.0 0.0 40 91
r 0.401656 6 1 tcp 1540 ------- 0 0.0 1.0 41 72
h 0.401656 1 6 ack 40 ------- 0 1.0 0.0 41 92
r 0.401781 6 1 tcp 1540 ------- 0 0.0 1.0 42 73
h 0.401781 1 6 ack 40 ------- 0 1.0 0.0 42 93
r 0.401907 6 1 tcp 1540 ------- 0 0.0 1.0 43 74
h 0.401907 1 6 ack 40 ------- 0 1.0 0.0 43 94
r 0.402032 6 1 tcp 1540 ------- 0 0.0 1.0 44 75
h 0.402032 1 6 ack 40 ------- 0 1.0 0.0 44 95
r 0.402157 6 1 tcp 1540 ------- 0 0.0 1.0 45 76
h 0.402157 1 6 ack 40 ------- 0 1.0 0.0 45 96
r 0.402282 6 1 tcp 1540 ------- 0 0.0 1.0 46 77
h 0.402282 1 6 ack 40 ------- 0 1.0 0.0 46 97
r 0.402408 6 1 tcp 1540 ------- 0 0.0 1.0 47 78
h 0.402408 1 6 ack 40 ------- 0 1.0 0.0 47 98
r 0.402533 6 1 tcp 1540 ------- 0 0.0 1.0 48 79
h 0.402533 1 6 ack 40 ------- 0 1.0 0.0 48 99
r 0.402658 6 1 tcp 1540 ------- 0 0.0 1.0 49 80
h 0.402658 1 6 ack 40 ------- 0 1.0 0.0 49 100
r 0.402784 6 1 tcp 1540 ------- 0 0.0 1.0 50 81
h 0.402784 1 6 ack 40 ------- 0 1.0 0.0 50 101
+ 0.410403 1 6 ack 40 ------- 0 1.0 0.0 31 82
- 0.410403 1 6 ack 40 ------- 0 1.0 0.0 31 82
+ 0.410528 1 6 ack 40 ------- 0 1.0 0.0 32 83
- 0.410528 1 6 ack 40 ------- 0 1.0 0.0 32 83
+ 0.410654 1 6 ack 40 ------- 0 1.0 0.0 33 84
- 0.410654 1 6 ack 40 ------- 0 1.0 0.0 33 84
+ 0.410779 1 6 ack 40 ------- 0 1.0 0.0 34 85
- 0.410779 1 6 ack 40 ------- 0 1.0 0.0 34 85
+ 0.410904 1 6 ack 40 ------- 0 1.0 0.0 35 86
- 0.410904 1 6 ack 40 ------- 0 1.0 0.0 35 86
+ 0.41103 1 6 ack 40 ------- 0 1.0 0.0 36 87
- 0.41103 1 6 ack 40 ------- 0 1.0 0.0 36 87
+ 0.411155 1 6 ack 40 ------- 0 1.0 0.0 37 88
- 0.411155 1 6 ack 40 ------- 0 1.0 0.0 37 88
+ 0.41128 1 6 ack 40 ------- 0 1.0 0.0 38 89
- 0.41128 1 6 ack 40 ------- 0 1.0 0.0 38 89
+ 0.411405 1 6 ack 40 ------- 0 1.0 0.0 39 90
- 0.411405 1 6 ack 40 ------- 0 1.0 0.0 39 90
+ 0.411531 1 6 ack 40 ------- 0 1.0 0.0 40 91
- 0.411531 1 6 ack 40 ------- 0 1.0 0.0 40 91
+ 0.411656 1 6 ack 40 ------- 0 1.0 0.0 41 92
- 0.411656 1 6 ack 40 ------- 0 1.0 0.0 41 92
+ 0.411781 1 6 ack 40 ------- 0 1.0 0.0 42 93
- 0.411781 1 6 ack 40 ------- 0 1.0 0.0 42 93
+ 0.411907 1 6 ack 40 ------- 0 1.0 0.0 43 94
- 0.411907 1 6 ack 40 ------- 0 1.0 0.0 43 94
+ 0.412032 1 6 ack 40 ------- 0 1.0 0.0 44 95
- 0.412032 1 6 ack 40 ------- 0 1.0 0.0 44 95
+ 0.412157 1 6 ack 40 ------- 0 1.0 0.0 45 96
- 0.412157 1 6 ack 40 ------- 0 1.0 0.0 45 96
+ 0.412282 1 6 ack 40 ------- 0 1.0 0.0 46 97
- 0.412282 1 6 ack 40 ------- 0 1.0 0.0 46 97
+ 0.412408 1 6 ack 40 ------- 0 1.0 0.0 47 98
- 0.412408 1 6 ack 40 ------- 0 1.0 0.0 47 98
+ 0.412533 1 6 ack 40 ------- 0 1.0 0.0 48 99
- 0.412533 1 6 ack 40 ------- 0 1.0 0.0 48 99
+ 0.412658 1 6 ack 40 ------- 0 1.0 0.0 49 100
- 0.412658 1 6 ack 40 ------- 0 1.0 0.0 49 100
+ 0.412784 1 6 ack 40 ------- 0 1.0 0.0 50 101
- 0.412784 1 6 ack 40 ------- 0 1.0 0.0 50 101
r 0.420412 6 0 ack 40 ------- 0 1.0 0.0 31 82
r 0.420538 6 0 ack 40 ------- 0 1.0 0.0 32 83
r 0.420663 6 0 ack 40 ------- 0 1.0 0.0 33 84
r 0.420788 6 0 ack 40 ------- 0 1.0 0.0 34 85
r 0.420913 6 0 ack 40 ------- 0 1.0 0.0 35 86
r 0.421039 6 0 ack 40 ------- 0 1.0 0.0 36 87
r 0.421164 6 0 ack 40 ------- 0 1.0 0.0 37 88
r 0.421289 6 0 ack 40 ------- 0 1.0 0.0 38 89
r 0.421415 6 0 ack 40 ------- 0 1.0 0.0 39 90
r 0.42154 6 0 ack 40 ------- 0 1.0 0.0 40 91
r 0.421665 6 0 ack 40 ------- 0 1.0 0.0 41 92
r 0.42179 6 0 ack 40 ------- 0 1.0 0.0 42 93
r 0.421916 6 0 ack 40 ------- 0 1.0 0.0 43 94
r 0.422041 6 0 ack 40 ------- 0 1.0 0.0 44 95
r 0.422166 6 0 ack 40 ------- 0 1.0 0.0 45 96
r 0.422292 6 0 ack 40 ------- 0 1.0 0.0 46 97
r 0.422417 6 0 ack 40 ------- 0 1.0 0.0 47 98
r 0.422542 6 0 ack 40 ------- 0 1.0 0.0 48 99
r 0.422667 6 0 ack 40 ------- 0 1.0 0.0 49 100
r 0.422793 6 0 ack 40 ------- 0 1.0 0.0 50 101
h 0.5 4 6 tcp 40 ------- 0 4.0 5.0 0 102
+ 0.51 4 6 tcp 40 ------- 0 4.0 5.0 0 102
- 0.51 4 6 tcp 40 ------- 0 4.0 5.0 0 102
r 0.520009 6 5 tcp 40 ------- 0 4.0 5.0 0 102
h 0.520009 5 6 ack 40 ------- 0 5.0 4.0 0 103
+ 0.530009 5 6 ack 40 ------- 0 5.0 4.0 0 103
- 0.530009 5 6 ack 40 ------- 0 5.0 4.0 0 103
r 0.540018 6 4 ack 40 ------- 0 5.0 4.0 0 103
h 0.540018 4 6 tcp 1540 ------- 0 4.0 5.0 1 104
h 0.540018 4 6 tcp 1540 ------- 0 4.0 5.0 2 105
+ 0.550018 4 6 tcp 1540 ------- 0 4.0 5.0 1 104
- 0.550018 4 6 tcp 1540 ------- 0 4.0 5.0 1 104
+ 0.550018 4 6 tcp 1540 ------- 0 4.0 5.0 2 105
- 0.550144 4 6 tcp 1540 ------- 0 4.0 5.0 2 105
r 0.560147 6 5 tcp 1540 ------- 0 4.0 5.0 1 104
h 0.560147 5 6 ack 40 ------- 0 5.0 4.0 1 106
r 0.560272 6 5 tcp 1540 ------- 0 4.0 5.0 2 105
h 0.560272 5 6 ack 40 ------- 0 5.0 4.0 2 107
+ 0.570147 5 6 ack 40 ------- 0 5.0 4.0 1 106
- 0.570147 5 6 ack 40 ------- 0 5.0 4.0 1 106
+ 0.570272 5 6 ack 40 ------- 0 5.0 4.0 2 107
- 0.570272 5 6 ack 40 ------- 0 5.0 4.0 2 107
r 0.580156 6 4 ack 40 ------- 0 5.0 4.0 1 106
h 0.580156 4 6 tcp 1540 ------- 0 4.0 5.0 3 108
h 0.580156 4 6 tcp 1540 ------- 0 4.0 5.0 4 109
r 0.580281 6 4 ack 40 ------- 0 5.0 4.0 2 107
h 0.580281 4 6 tcp 1540 ------- 0 4.0 5.0 5 110
h 0.580281 4 6 tcp 1540 ------- 0 4.0 5.0 6 111
+ 0.590156 4 6 tcp 1540 ------- 0 4.0 5.0 3 108
- 0.590156 4 6 tcp 1540 ------- 0 4.0 5.0 3 108
+ 0.590156 4 6 tcp 1540 ------- 0 4.0 5.0 4 109
+ 0.590281 4 6 tcp 1540 ------- 0 4.0 5.0 5 110
+ 0.590281 4 6 tcp 1540 ------- 0 4.0 5.0 6 111
- 0.590281 4 6 tcp 1540 ------- 0 4.0 5.0 4 109
- 0.590406 4 6 tcp 1540 ------- 0 4.0 5.0 5 110
- 0.590532 4 6 tcp 1540 ------- 0 4.0 5.0 6 111
r 0.600284 6 5 tcp 1540 ------- 0 4.0 5.0 3 108
h 0.600284 5 6 ack 40 ------- 0 5.0 4.0 3 112
r 0.600409 6 5 tcp 1540 ------- 0 4.0 5.0 4 109
h 0.600409 5 6 ack 40 ------- 0 5.0 4.0 4 113
r 0.600535 6 5 tcp 1540 ------- 0 4.0 5.0 5 110
h 0.600535 5 6 ack 40 ------- 0 5.0 4.0 5 114
r 0.60066 6 5 tcp 1540 ------- 0 4.0 5.0 6 111
h 0.60066 5 6 ack 40 ------- 0 5.0 4.0 6 115
+ 0.610284 5 6 ack 40 ------- 0 5.0 4.0 3 112
- 0.610284 5 6 ack 40 ------- 0 5.0 4.0 3 112
+ 0.610409 5 6 ack 40 ------- 0 5.0 4.0 4 113
- 0.610409 5 6 ack 40 ------- 0 5.0 4.0 4 113
+ 0.610535 5 6 ack 40 ------- 0 5.0 4.0 5 114
- 0.610535 5 6 ack 40 ------- 0 5.0 4.0 5 114
+ 0.61066 5 6 ack 40 ------- 0 5.0 4.0 6 115
- 0.61066 5 6 ack 40 ------- 0 5.0 4.0 6 115
r 0.620293 6 4 ack 40 ------- 0 5.0 4.0 3 112
r 0.620418 6 4 ack 40 ------- 0 5.0 4.0 4 113
r 0.620544 6 4 ack 40 ------- 0 5.0 4.0 5 114
r 0.620669 6 4 ack 40 ------- 0 5.0 4.0 6 115
h 0.7 4 6 tcp 1540 ------- 0 4.0 5.0 7 116
h 0.7 4 6 tcp 1540 ------- 0 4.0 5.0 8 117
h 0.7 4 6 tcp 1540 ------- 0 4.0 5.0 9 118
h 0.7 4 6 tcp 1540 ------- 0 4.0 5.0 10 119
h 0.7 4 6 tcp 1540 ------- 0 4.0 5.0 11 120
h 0.7 4 6 tcp 1540 ------- 0 4.0 5.0 12 121
h 0.7 4 6 tcp 1540 ------- 0 4.0 5.0 13 122
h 0.7 4 6 tcp 1540 ------- 0 4.0 5.0 14 123
+ 0.71 4 6 tcp 1540 ------- 0 4.0 5.0 7 116
- 0.71 4 6 tcp 1540 ------- 0 4.0 5.0 7 116
+ 0.71 4 6 tcp 1540 ------- 0 4.0 5.0 8 117
+ 0.71 4 6 tcp 1540 ------- 0 4.0 5.0 9 118
+ 0.71 4 6 tcp 1540 ------- 0 4.0 5.0 10 119
+ 0.71 4 6 tcp 1540 ------- 0 4.0 5.0 11 120
+ 0.71 4 6 tcp 1540 ------- 0 4.0 5.0 12 121
+ 0.71 4 6 tcp 1540 ------- 0 4.0 5.0 13 122
+ 0.71 4 6 tcp 1540 ------- 0 4.0 5.0 14 123
- 0.710125 4 6 tcp 1540 ------- 0 4.0 5.0 8 117
- 0.710251 4 6 tcp 1540 ------- 0 4.0 5.0 9 118
- 0.710376 4 6 tcp 1540 ------- 0 4.0 5.0 10 119
- 0.710501 4 6 tcp 1540 ------- 0 4.0 5.0 11 120
- 0.710626 4 6 tcp 1540 ------- 0 4.0 5.0 12 121
- 0.710752 4 6 tcp 1540 ------- 0 4.0 5.0 13 122
- 0.710877 4 6 tcp 1540 ------- 0 4.0 5.0 14 123
r 0.720128 6 5 tcp 1540 ------- 0 4.0 5.0 7 116
h 0.720128 5 6 ack 40 ------- 0 5.0 4.0 7 124
r 0.720254 6 5 tcp 1540 ------- 0 4.0 5.0 8 117
h 0.720254 5 6 ack 40 ------- 0 5.0 4.0 8 125
r 0.720379 6 5 tcp 1540 ------- 0 4.0 5.0 9 118
h 0.720379 5 6 ack 40 ------- 0 5.0 4.0 9 126
r 0.720504 6 5 tcp 1540 ------- 0 4.0 5.0 10 119
h 0.720504 5 6 ack 40 ------- 0 5.0 4.0 10 127
r 0.720629 6 5 tcp 1540 ------- 0 4.0 5.0 11 120
h 0.720629 5 6 ack 40 ------- 0 5.0 4.0 11 128
r 0.720755 6 5 tcp 1540 ------- 0 4.0 5.0 12 121
h 0.720755 5 6 ack 40 ------- 0 5.0 4.0 12 129
r 0.72088 6 5 tcp 1540 ------- 0 4.0 5.0 13 122
h 0.72088 5 6 ack 40 ------- 0 5.0 4.0 13 130
r 0.721005 6 5 tcp 1540 ------- 0 4.0 5.0 14 123
h 0.721005 5 6 ack 40 ------- 0 5.0 4.0 14 131
+ 0.730128 5 6 ack 40 ------- 0 5.0 4.0 7 124
- 0.730128 5 6 ack 40 ------- 0 5.0 4.0 7 124
+ 0.730254 5 6 ack 40 ------- 0 5.0 4.0 8 125
- 0.730254 5 6 ack 40 ------- 0 5.0 4.0 8 125
+ 0.730379 5 6 ack 40 ------- 0 5.0 4.0 9 126
- 0.730379 5 6 ack 40 ------- 0 5.0 4.0 9 126
+ 0.730504 5 6 ack 40 ------- 0 5.0 4.0 10 127
- 0.730504 5 6 ack 40 ------- 0 5.0 4.0 10 127
+ 0.730629 5 6 ack 40 ------- 0 5.0 4.0 11 128
- 0.730629 5 6 ack 40 ------- 0 5.0 4.0 11 128
+ 0.730755 5 6 ack 40 ------- 0 5.0 4.0 12 129
- 0.730755 5 6 ack 40 ------- 0 5.0 4.0 12 129
+ 0.73088 5 6 ack 40 ------- 0 5.0 4.0 13 130
- 0.73088 5 6 ack 40 ------- 0 5.0 4.0 13 130
+ 0.731005 5 6 ack 40 ------- 0 5.0 4.0 14 131
- 0.731005 5 6 ack 40 ------- 0 5.0 4.0 14 131
r 0.740137 6 4 ack 40 ------- 0 5.0 4.0 7 124
h 0.740137 4 6 tcp 1540 ------- 0 4.0 5.0 15 132
h 0.740137 4 6 tcp 1540 ------- 0 4.0 5.0 16 133
r 0.740263 6 4 ack 40 ------- 0 5.0 4.0 8 125
h 0.740263 4 6 tcp 1540 ------- 0 4.0 5.0 17 134
h 0.740263 4 6 tcp 1540 ------- 0 4.0 5.0 18 135
r 0.740388 6 4 ack 40 ------- 0 5.0 4.0 9 126
h 0.740388 4 6 tcp 1540 ------- 0 4.0 5.0 19 136
h 0.740388 4 6 tcp 1540 ------- 0 4.0 5.0 20 137
r 0.740513 6 4 ack 40 ------- 0 5.0 4.0 10 127
h 0.740513 4 6 tcp 1540 ------- 0 4.0 5.0 21 138
h 0.740513 4 6 tcp 1540 ------- 0 4.0 5.0 22 139
r 0.740639 6 4 ack 40 ------- 0 5.0 4.0 11 128
h 0.740639 4 6 tcp 1540 ------- 0 4.0 5.0 23 140
h 0.740639 4 6 tcp 1540 ------- 0 4.0 5.0 24 141
r 0.740764 6 4 ack 40 ------- 0 5.0 4.0 12 129
h 0.740764 4 6 tcp 1540 ------- 0 4.0 5.0 25 142
h 0.740764 4 6 tcp 1540 ------- 0 4.0 5.0 26 143
r 0.740889 6 4 ack 40 ------- 0 5.0 4.0 13 130
h 0.740889 4 6 tcp 1540 ------- 0 4.0 5.0 27 144
h 0.740889 4 6 tcp 1540 ------- 0 4.0 5.0 28 145
r 0.741014 6 4 ack 40 ------- 0 5.0 4.0 14 131
h 0.741014 4 6 tcp 1540 ------- 0 4.0 5.0 29 146
h 0.741014 4 6 tcp 1540 ------- 0 4.0 5.0 30 147
+ 0.750137 4 6 tcp 1540 ------- 0 4.0 5.0 15 132
- 0.750137 4 6 tcp 1540 ------- 0 4.0 5.0 15 132
+ 0.750137 4 6 tcp 1540 ------- 0 4.0 5.0 16 133
+ 0.750263 4 6 tcp 1540 ------- 0 4.0 5.0 17 134
+ 0.750263 4 6 tcp 1540 ------- 0 4.0 5.0 18 135
- 0.750263 4 6 tcp 1540 ------- 0 4.0 5.0 16 133
+ 0.750388 4 6 tcp 1540 ------- 0 4.0 5.0 19 136
+ 0.750388 4 6 tcp 1540 ------- 0 4.0 5.0 20 137
- 0.750388 4 6 tcp 1540 ------- 0 4.0 5.0 17 134
+ 0.750513 4 6 tcp 1540 ------- 0 4.0 5.0 21 138
+ 0.750513 4 6 tcp 1540 ------- 0 4.0 5.0 22 139
- 0.750513 4 6 tcp 1540 ------- 0 4.0 5.0 18 135
+ 0.750639 4 6 tcp 1540 ------- 0 4.0 5.0 23 140
+ 0.750639 4 6 tcp 1540 ------- 0 4.0 5.0 24 141
- 0.750639 4 6 tcp 1540 ------- 0 4.0 5.0 19 136
+ 0.750764 4 6 tcp 1540 ------- 0 4.0 5.0 25 142
+ 0.750764 4 6 tcp 1540 ------- 0 4.0 5.0 26 143
- 0.750764 4 6 tcp 1540 ------- 0 4.0 5.0 20 137
+ 0.750889 4 6 tcp 1540 ------- 0 4.0 5.0 27 144
+ 0.750889 4 6 tcp 1540 ------- 0 4.0 5.0 28 145
- 0.750889 4 6 tcp 1540 ------- 0 4.0 5.0 21 138
+ 0.751014 4 6 tcp 1540 ------- 0 4.0 5.0 29 146
+ 0.751014 4 6 tcp 1540 ------- 0 4.0 5.0 30 147
- 0.751014 4 6 tcp 1540 ------- 0 4.0 5.0 22 139
- 0.75114 4 6 tcp 1540 ------- 0 4.0 5.0 23 140
- 0.751265 4 6 tcp 1540 ------- 0 4.0 5.0 24 141
- 0.75139 4 6 tcp 1540 ------- 0 4.0 5.0 25 142
- 0.751516 4 6 tcp 1540 ------- 0 4.0 5.0 26 143
- 0.751641 4 6 tcp 1540 ------- 0 4.0 5.0 27 144
- 0.751766 4 6 tcp 1540 ------- 0 4.0 5.0 28 145
- 0.751891 4 6 tcp 1540 ------- 0 4.0 5.0 29 146
- 0.752017 4 6 tcp 1540 ------- 0 4.0 5.0 30 147
r 0.760266 6 5 tcp 1540 ------- 0 4.0 5.0 15 132
h 0.760266 5 6 ack 40 ------- 0 5.0 4.0 15 148
r 0.760391 6 5 tcp 1540 ------- 0 4.0 5.0 16 133
h 0.760391 5 6 ack 40 ------- 0 5.0 4.0 16 149
r 0.760516 6 5 tcp 1540 ------- 0 4.0 5.0 17 134
h 0.760516 5 6 ack 40 ------- 0 5.0 4.0 17 150
r 0.760642 6 5 tcp 1540 ------- 0 4.0 5.0 18 135
h 0.760642 5 6 ack 40 ------- 0 5.0 4.0 18 151
r 0.760767 6 5 tcp 1540 ------- 0 4.0 5.0 19 136
h 0.760767 5 6 ack 40 ------- 0 5.0 4.0 19 152
r 0.760892 6 5 tcp 1540 ------- 0 4.0 5.0 20 137
h 0.760892 5 6 ack 40 ------- 0 5.0 4.0 20 153
r 0.761017 6 5 tcp 1540 ------- 0 4.0 5.0 21 138
h 0.761017 5 6 ack 40 ------- 0 5.0 4.0 21 154
r 0.761143 6 5 tcp 1540 ------- 0 4.0 5.0 22 139
h 0.761143 5 6 ack 40 ------- 0 5.0 4.0 22 155
r 0.761268 6 5 tcp 1540 ------- 0 4.0 5.0 23 140
h 0.761268 5 6 ack 40 ------- 0 5.0 4.0 23 156
r 0.761393 6 5 tcp 1540 ------- 0 4.0 5.0 24 141
h 0.761393 5 6 ack 40 ------- 0 5.0 4.0 24 157
r 0.761519 6 5 tcp 1540 ------- 0 4.0 5.0 25 142
h 0.761519 5 6 ack 40 ------- 0 5.0 4.0 25 158
r 0.761644 6 5 tcp 1540 ------- 0 4.0 5.0 26 143
h 0.761644 5 6 ack 40 ------- 0 5.0 4.0 26 159
r 0.761769 6 5 tcp 1540 ------- 0 4.0 5.0 27 144
h 0.761769 5 6 ack 40 ------- 0 5.0 4.0 27 160
r 0.761894 6 5 tcp 1540 ------- 0 4.0 5.0 28 145
h 0.761894 5 6 ack 40 ------- 0 5.0 4.0 28 161
r 0.76202 6 5 tcp 1540 ------- 0 4.0 5.0 29 146
h 0.76202 5 6 ack 40 ------- 0 5.0 4.0 29 162
r 0.762145 6 5 tcp 1540 ------- 0 4.0 5.0 30 147
h 0.762145 5 6 ack 40 ------- 0 5.0 4.0 30 163
+ 0.770266 5 6 ack 40 ------- 0 5.0 4.0 15 148
- 0.770266 5 6 ack 40 ------- 0 5.0 4.0 15 148
+ 0.770391 5 6 ack 40 ------- 0 5.0 4.0 16 149
- 0.770391 5 6 ack 40 ------- 0 5.0 4.0 16 149
+ 0.770516 5 6 ack 40 ------- 0 5.0 4.0 17 150
- 0.770516 5 6 ack 40 ------- 0 5.0 4.0 17 150
+ 0.770642 5 6 ack 40 ------- 0 5.0 4.0 18 151
- 0.770642 5 6 ack 40 ------- 0 5.0 4.0 18 151
+ 0.770767 5 6 ack 40 ------- 0 5.0 4.0 19 152
- 0.770767 5 6 ack 40 ------- 0 5.0 4.0 19 152
+ 0.770892 5 6 ack 40 ------- 0 5.0 4.0 20 153
- 0.770892 5 6 ack 40 ------- 0 5.0 4.0 20 153
+ 0.771017 5 6 ack 40 ------- 0 5.0 4.0 21 154
- 0.771017 5 6 ack 40 ------- 0 5.0 4.0 21 154
+ 0.771143 5 6 ack 40 ------- 0 5.0 4.0 22 155
- 0.771143 5 6 ack 40 ------- 0 5.0 4.0 22 155
+ 0.771268 5 6 ack 40 ------- 0 5.0 4.0 23 156
- 0.771268 5 6 ack 40 ------- 0 5.0 4.0 23 156
+ 0.771393 5 6 ack 40 ------- 0 5.0 4.0 24 157
- 0.771393 5 6 ack 40 ------- 0 5.0 4.0 24 157
+ 0.771519 5 6 ack 40 ------- 0 5.0 4.0 25 158
- 0.771519 5 6 ack 40 ------- 0 5.0 4.0 25 158
+ 0.771644 5 6 ack 40 ------- 0 5.0 4.0 26 159
- 0.771644 5 6 ack 40 ------- 0 5.0 4.0 26 159
+ 0.771769 5 6 ack 40 ------- 0 5.0 4.0 27 160
- 0.771769 5 6 ack 40 ------- 0 5.0 4.0 27 160
+ 0.771894 5 6 ack 40 ------- 0 5.0 4.0 28 161
- 0.771894 5 6 ack 40 ------- 0 5.0 4.0 28 161
+ 0.77202 5 6 ack 40 ------- 0 5.0 4.0 29 162
- 0.77202 5 6 ack 40 ------- 0 5.0 4.0 29 162
+ 0.772145 5 6 ack 40 ------- 0 5.0 4.0 30 163
- 0.772145 5 6 ack 40 ------- 0 5.0 4.0 30 163
r 0.780275 6 4 ack 40 ------- 0 5.0 4.0 15 148
h 0.780275 4 6 tcp 1540 ------- 0 4.0 5.0 31 164