s 1.000000000 _0_ AGT  --- 0 tcp 40 [0 0 0 0] ------- [0:0 3:0 32 0] [0 0] 0 0
r 1.000000000 _0_ RTR  --- 0 tcp 40 [0 0 0 0] ------- [0:0 3:0 32 0] [0 0] 0 0
s 1.000000000 _2_ AGT  --- 1 tcp 40 [0 0 0 0] ------- [2:0 5:0 32 0] [0 0] 0 0
r 1.000000000 _2_ RTR  --- 1 tcp 40 [0 0 0 0] ------- [2:0 5:0 32 0] [0 0] 0 0
s 1.000000000 _0_ RTR  --- 0 AODV 48 [0 0 0 0] ------- [0:255 -1:255 30 0] [0x2 1 1 [3 0] [0 4]] (REQUEST)
s 1.000000000 _2_ RTR  --- 0 AODV 48 [0 0 0 0] ------- [2:255 -1:255 30 0] [0x2 1 1 [5 0] [2 4]] (REQUEST)
s 1.014000000 _0_ MAC  --- 0 AODV 100 [0 ffffffff 0 0] ------- [0:255 -1:255 30 0] [0x2 1 1 [3 0] [0 4]] (REQUEST)
r 1.014400594 _1_ MAC  --- 0 AODV 48 [0 ffffffff 0 0] ------- [0:255 -1:255 30 0] [0x2 1 1 [3 0] [0 4]] (REQUEST)
r 1.014400948 _2_ MAC  --- 0 AODV 48 [0 ffffffff 0 0] ------- [0:255 -1:255 30 0] [0x2 1 1 [3 0] [0 4]] (REQUEST)
r 1.014401384 _6_ MAC  --- 0 AODV 48 [0 ffffffff 0 0] ------- [0:255 -1:255 30 0] [0x2 1 1 [3 0] [0 4]] (REQUEST)
r 1.014401741 _4_ MAC  --- 0 AODV 48 [0 ffffffff 0 0] ------- [0:255 -1:255 30 0] [0x2 1 1 [3 0] [0 4]] (REQUEST)
r 1.014425594 _1_ RTR  --- 0 AODV 48 [0 ffffffff 0 0] ------- [0:255 -1:255 30 0] [0x2 1 1 [3 0] [0 4]] (REQUEST)
s 1.014567641 _1_ RTR  --- 0 AODV 48 [0 ffffffff 0 0] ------- [1:255 -1:255 29 0] [0x2 2 1 [3 0] [0 4]] (REQUEST)
s 1.026000000 _2_ MAC  --- 0 AODV 100 [0 ffffffff 2 0] ------- [2:255 -1:255 30 0] [0x2 1 1 [5 0] [2 4]] (REQUEST)
r 1.026400607 _1_ MAC  --- 0 AODV 48 [0 ffffffff 2 0] ------- [2:255 -1:255 30 0] [0x2 1 1 [5 0] [2 4]] (REQUEST)
r 1.026400838 _4_ MAC  --- 0 AODV 48 [0 ffffffff 2 0] ------- [2:255 -1:255 30 0] [0x2 1 1 [5 0] [2 4]] (REQUEST)
r 1.026400892 _6_ MAC  --- 0 AODV 48 [0 ffffffff 2 0] ------- [2:255 -1:255 30 0] [0x2 1 1 [5 0] [2 4]] (REQUEST)
r 1.026400939 _3_ MAC  --- 0 AODV 48 [0 ffffffff 2 0] ------- [2:255 -1:255 30 0] [0x2 1 1 [5 0] [2 4]] (REQUEST)
r 1.026400948 _0_ MAC  --- 0 AODV 48 [0 ffffffff 2 0] ------- [2:255 -1:255 30 0] [0x2 1 1 [5 0] [2 4]] (REQUEST)
r 1.026401574 _5_ MAC  --- 0 AODV 48 [0 ffffffff 2 0] ------- [2:255 -1:255 30 0] [0x2 1 1 [5 0] [2 4]] (REQUEST)
r 1.026425607 _1_ RTR  --- 0 AODV 48 [0 ffffffff 2 0] ------- [2:255 -1:255 30 0] [0x2 1 1 [5 0] [2 4]] (REQUEST)
s 1.027306834 _1_ RTR  --- 0 AODV 48 [0 ffffffff 2 0] ------- [1:255 -1:255 29 0] [0x2 2 1 [5 0] [2 4]] (REQUEST)
s 1.068000000 _1_ MAC  --- 0 AODV 100 [0 ffffffff 1 0] ------- [1:255 -1:255 29 0] [0x2 2 1 [3 0] [0 4]] (REQUEST)
r 1.068400594 _0_ MAC  --- 0 AODV 48 [0 ffffffff 1 0] ------- [1:255 -1:255 29 0] [0x2 2 1 [3 0] [0 4]] (REQUEST)
r 1.068400607 _2_ MAC  --- 0 AODV 48 [0 ffffffff 1 0] ------- [1:255 -1:255 29 0] [0x2 2 1 [3 0] [0 4]] (REQUEST)
r 1.068400790 _6_ MAC  --- 0 AODV 48 [0 ffffffff 1 0] ------- [1:255 -1:255 29 0] [0x2 2 1 [3 0] [0 4]] (REQUEST)
r 1.068401237 _4_ MAC  --- 0 AODV 48 [0 ffffffff 1 0] ------- [1:255 -1:255 29 0] [0x2 2 1 [3 0] [0 4]] (REQUEST)
r 1.068401529 _3_ MAC  --- 0 AODV 48 [0 ffffffff 1 0] ------- [1:255 -1:255 29 0] [0x2 2 1 [3 0] [0 4]] (REQUEST)
r 1.068425594 _0_ RTR  --- 0 AODV 48 [0 ffffffff 1 0] ------- [1:255 -1:255 29 0] [0x2 2 1 [3 0] [0 4]] (REQUEST)
r 1.068425607 _2_ RTR  --- 0 AODV 48 [0 ffffffff 1 0] ------- [1:255 -1:255 29 0] [0x2 2 1 [3 0] [0 4]] (REQUEST)
r 1.068425790 _6_ RTR  --- 0 AODV 48 [0 ffffffff 1 0] ------- [1:255 -1:255 29 0] [0x2 2 1 [3 0] [0 4]] (REQUEST)
s 1.072837341 _2_ RTR  --- 0 AODV 48 [0 ffffffff 1 0] ------- [2:255 -1:255 28 0] [0x2 3 1 [3 0] [0 4]] (REQUEST)
s 1.076417345 _6_ RTR  --- 0 AODV 48 [0 ffffffff 1 0] ------- [6:255 -1:255 28 0] [0x2 3 1 [3 0] [0 4]] (REQUEST)
s 1.116000000 _1_ MAC  --- 0 AODV 100 [0 ffffffff 1 0] ------- [1:255 -1:255 29 0] [0x2 2 1 [5 0] [2 4]] (REQUEST)
r 1.116400594 _0_ MAC  --- 0 AODV 48 [0 ffffffff 1 0] ------- [1:255 -1:255 29 0] [0x2 2 1 [5 0] [2 4]] (REQUEST)
r 1.116400607 _2_ MAC  --- 0 AODV 48 [0 ffffffff 1 0] ------- [1:255 -1:255 29 0] [0x2 2 1 [5 0] [2 4]] (REQUEST)
r 1.116400790 _6_ MAC  --- 0 AODV 48 [0 ffffffff 1 0] ------- [1:255 -1:255 29 0] [0x2 2 1 [5 0] [2 4]] (REQUEST)
r 1.116401237 _4_ MAC  --- 0 AODV 48 [0 ffffffff 1 0] ------- [1:255 -1:255 29 0] [0x2 2 1 [5 0] [2 4]] (REQUEST)
r 1.116401529 _3_ MAC  --- 0 AODV 48 [0 ffffffff 1 0] ------- [1:255 -1:255 29 0] [0x2 2 1 [5 0] [2 4]] (REQUEST)
r 1.116425594 _0_ RTR  --- 0 AODV 48 [0 ffffffff 1 0] ------- [1:255 -1:255 29 0] [0x2 2 1 [5 0] [2 4]] (REQUEST)
r 1.116425607 _2_ RTR  --- 0 AODV 48 [0 ffffffff 1 0] ------- [1:255 -1:255 29 0] [0x2 2 1 [5 0] [2 4]] (REQUEST)
r 1.116425790 _6_ RTR  --- 0 AODV 48 [0 ffffffff 1 0] ------- [1:255 -1:255 29 0] [0x2 2 1 [5 0] [2 4]] (REQUEST)
s 1.119555212 _0_ RTR  --- 0 AODV 48 [0 ffffffff 1 0] ------- [0:255 -1:255 28 0] [0x2 3 1 [5 0] [2 4]] (REQUEST)
s 1.122000000 _2_ MAC  --- 0 AODV 100 [0 ffffffff 2 0] ------- [2:255 -1:255 28 0] [0x2 3 1 [3 0] [0 4]] (REQUEST)
r 1.122400607 _1_ MAC  --- 0 AODV 48 [0 ffffffff 2 0] ------- [2:255 -1:255 28 0] [0x2 3 1 [3 0] [0 4]] (REQUEST)
r 1.122400838 _4_ MAC  --- 0 AODV 48 [0 ffffffff 2 0] ------- [2:255 -1:255 28 0] [0x2 3 1 [3 0] [0 4]] (REQUEST)
r 1.122400892 _6_ MAC  --- 0 AODV 48 [0 ffffffff 2 0] ------- [2:255 -1:255 28 0] [0x2 3 1 [3 0] [0 4]] (REQUEST)
r 1.122400939 _3_ MAC  --- 0 AODV 48 [0 ffffffff 2 0] ------- [2:255 -1:255 28 0] [0x2 3 1 [3 0] [0 4]] (REQUEST)
r 1.122400948 _0_ MAC  --- 0 AODV 48 [0 ffffffff 2 0] ------- [2:255 -1:255 28 0] [0x2 3 1 [3 0] [0 4]] (REQUEST)
r 1.122401574 _5_ MAC  --- 0 AODV 48 [0 ffffffff 2 0] ------- [2:255 -1:255 28 0] [0x2 3 1 [3 0] [0 4]] (REQUEST)
r 1.122425607 _1_ RTR  --- 0 AODV 48 [0 ffffffff 2 0] ------- [2:255 -1:255 28 0] [0x2 3 1 [3 0] [0 4]] (REQUEST)
s 1.124590551 _6_ RTR  --- 0 AODV 48 [0 ffffffff 1 0] ------- [6:255 -1:255 28 0] [0x2 3 1 [5 0] [2 4]] (REQUEST)
s 1.146000000 _6_ MAC  --- 0 AODV 100 [0 ffffffff 6 0] ------- [6:255 -1:255 28 0] [0x2 3 1 [3 0] [0 4]] (REQUEST)
r 1.146400790 _1_ MAC  --- 0 AODV 48 [0 ffffffff 6 0] ------- [6:255 -1:255 28 0] [0x2 3 1 [3 0] [0 4]] (REQUEST)
r 1.146400822 _4_ MAC  --- 0 AODV 48 [0 ffffffff 6 0] ------- [6:255 -1:255 28 0] [0x2 3 1 [3 0] [0 4]] (REQUEST)
r 1.146400892 _2_ MAC  --- 0 AODV 48 [0 ffffffff 6 0] ------- [6:255 -1:255 28 0] [0x2 3 1 [3 0] [0 4]] (REQUEST)
r 1.146401384 _0_ MAC  --- 0 AODV 48 [0 ffffffff 6 0] ------- [6:255 -1:255 28 0] [0x2 3 1 [3 0] [0 4]] (REQUEST)
r 1.146401426 _3_ MAC  --- 0 AODV 48 [0 ffffffff 6 0] ------- [6:255 -1:255 28 0] [0x2 3 1 [3 0] [0 4]] (REQUEST)
r 1.146401583 _5_ MAC  --- 0 AODV 48 [0 ffffffff 6 0] ------- [6:255 -1:255 28 0] [0x2 3 1 [3 0] [0 4]] (REQUEST)
r 1.146425790 _1_ RTR  --- 0 AODV 48 [0 ffffffff 6 0] ------- [6:255 -1:255 28 0] [0x2 3 1 [3 0] [0 4]] (REQUEST)
r 1.146425822 _4_ RTR  --- 0 AODV 48 [0 ffffffff 6 0] ------- [6:255 -1:255 28 0] [0x2 3 1 [3 0] [0 4]] (REQUEST)
s 1.148771840 _4_ RTR  --- 0 AODV 48 [0 ffffffff 6 0] ------- [4:255 -1:255 27 0] [0x2 4 1 [3 0] [0 4]] (REQUEST)
s 1.158000000 _0_ MAC  --- 0 AODV 100 [0 ffffffff 0 0] ------- [0:255 -1:255 28 0] [0x2 3 1 [5 0] [2 4]] (REQUEST)
r 1.158400594 _1_ MAC  --- 0 AODV 48 [0 ffffffff 0 0] ------- [0:255 -1:255 28 0] [0x2 3 1 [5 0] [2 4]] (REQUEST)
r 1.158400948 _2_ MAC  --- 0 AODV 48 [0 ffffffff 0 0] ------- [0:255 -1:255 28 0] [0x2 3 1 [5 0] [2 4]] (REQUEST)
r 1.158401384 _6_ MAC  --- 0 AODV 48 [0 ffffffff 0 0] ------- [0:255 -1:255 28 0] [0x2 3 1 [5 0] [2 4]] (REQUEST)
r 1.158401741 _4_ MAC  --- 0 AODV 48 [0 ffffffff 0 0] ------- [0:255 -1:255 28 0] [0x2 3 1 [5 0] [2 4]] (REQUEST)
r 1.158425594 _1_ RTR  --- 0 AODV 48 [0 ffffffff 0 0] ------- [0:255 -1:255 28 0] [0x2 3 1 [5 0] [2 4]] (REQUEST)
s 1.182000000 _4_ MAC  --- 0 AODV 100 [0 ffffffff 4 0] ------- [4:255 -1:255 27 0] [0x2 4 1 [3 0] [0 4]] (REQUEST)
r 1.182400695 _3_ MAC  --- 0 AODV 48 [0 ffffffff 4 0] ------- [4:255 -1:255 27 0] [0x2 4 1 [3 0] [0 4]] (REQUEST)
r 1.182400814 _5_ MAC  --- 0 AODV 48 [0 ffffffff 4 0] ------- [4:255 -1:255 27 0] [0x2 4 1 [3 0] [0 4]] (REQUEST)
r 1.182400822 _6_ MAC  --- 0 AODV 48 [0 ffffffff 4 0] ------- [4:255 -1:255 27 0] [0x2 4 1 [3 0] [0 4]] (REQUEST)
r 1.182400838 _2_ MAC  --- 0 AODV 48 [0 ffffffff 4 0] ------- [4:255 -1:255 27 0] [0x2 4 1 [3 0] [0 4]] (REQUEST)
r 1.182401237 _1_ MAC  --- 0 AODV 48 [0 ffffffff 4 0] ------- [4:255 -1:255 27 0] [0x2 4 1 [3 0] [0 4]] (REQUEST)
r 1.182401741 _0_ MAC  --- 0 AODV 48 [0 ffffffff 4 0] ------- [4:255 -1:255 27 0] [0x2 4 1 [3 0] [0 4]] (REQUEST)
r 1.182425695 _3_ RTR  --- 0 AODV 48 [0 ffffffff 4 0] ------- [4:255 -1:255 27 0] [0x2 4 1 [3 0] [0 4]] (REQUEST)
s 1.182425695 _3_ RTR  --- 0 AODV 44 [0 0 0 0] ------- [3:255 0:255 30 4] [0x4 1 [3 4] 10.000000] (REPLY)
r 1.182425814 _5_ RTR  --- 0 AODV 48 [0 ffffffff 4 0] ------- [4:255 -1:255 27 0] [0x2 4 1 [3 0] [0 4]] (REQUEST)
r 1.182425822 _6_ RTR  --- 0 AODV 48 [0 ffffffff 4 0] ------- [4:255 -1:255 27 0] [0x2 4 1 [3 0] [0 4]] (REQUEST)
s 1.188814466 _5_ RTR  --- 0 AODV 48 [0 ffffffff 4 0] ------- [5:255 -1:255 26 0] [0x2 5 1 [3 0] [0 4]] (REQUEST)
s 1.194000000 _6_ MAC  --- 0 AODV 100 [0 ffffffff 6 0] ------- [6:255 -1:255 28 0] [0x2 3 1 [5 0] [2 4]] (REQUEST)
r 1.194400790 _1_ MAC  --- 0 AODV 48 [0 ffffffff 6 0] ------- [6:255 -1:255 28 0] [0x2 3 1 [5 0] [2 4]] (REQUEST)
r 1.194400822 _4_ MAC  --- 0 AODV 48 [0 ffffffff 6 0] ------- [6:255 -1:255 28 0] [0x2 3 1 [5 0] [2 4]] (REQUEST)
r 1.194400892 _2_ MAC  --- 0 AODV 48 [0 ffffffff 6 0] ------- [6:255 -1:255 28 0] [0x2 3 1 [5 0] [2 4]] (REQUEST)
r 1.194401384 _0_ MAC  --- 0 AODV 48 [0 ffffffff 6 0] ------- [6:255 -1:255 28 0] [0x2 3 1 [5 0] [2 4]] (REQUEST)
r 1.194401426 _3_ MAC  --- 0 AODV 48 [0 ffffffff 6 0] ------- [6:255 -1:255 28 0] [0x2 3 1 [5 0] [2 4]] (REQUEST)
r 1.194401583 _5_ MAC  --- 0 AODV 48 [0 ffffffff 6 0] ------- [6:255 -1:255 28 0] [0x2 3 1 [5 0] [2 4]] (REQUEST)
r 1.194425790 _1_ RTR  --- 0 AODV 48 [0 ffffffff 6 0] ------- [6:255 -1:255 28 0] [0x2 3 1 [5 0] [2 4]] (REQUEST)
r 1.194425822 _4_ RTR  --- 0 AODV 48 [0 ffffffff 6 0] ------- [6:255 -1:255 28 0] [0x2 3 1 [5 0] [2 4]] (REQUEST)
s 1.197516613 _4_ RTR  --- 0 AODV 48 [0 ffffffff 6 0] ------- [4:255 -1:255 27 0] [0x2 4 1 [5 0] [2 4]] (REQUEST)
s 1.224000000 _3_ MAC  --- 0 ARP 80 [0 ffffffff 3 0] ------- [REQUEST 3/3 0/4]
r 1.224320695 _4_ MAC  --- 0 ARP 28 [0 ffffffff 3 0] ------- [REQUEST 3/3 0/4]
r 1.224320868 _5_ MAC  --- 0 ARP 28 [0 ffffffff 3 0] ------- [REQUEST 3/3 0/4]
r 1.224320939 _2_ MAC  --- 0 ARP 28 [0 ffffffff 3 0] ------- [REQUEST 3/3 0/4]
r 1.224321426 _6_ MAC  --- 0 ARP 28 [0 ffffffff 3 0] ------- [REQUEST 3/3 0/4]
r 1.224321529 _1_ MAC  --- 0 ARP 28 [0 ffffffff 3 0] ------- [REQUEST 3/3 0/4]
s 1.230000000 _4_ MAC  --- 0 AODV 100 [0 ffffffff 4 0] ------- [4:255 -1:255 27 0] [0x2 4 1 [5 0] [2 4]] (REQUEST)
r 1.230400695 _3_ MAC  --- 0 AODV 48 [0 ffffffff 4 0] ------- [4:255 -1:255 27 0] [0x2 4 1 [5 0] [2 4]] (REQUEST)
r 1.230400814 _5_ MAC  --- 0 AODV 48 [0 ffffffff 4 0] ------- [4:255 -1:255 27 0] [0x2 4 1 [5 0] [2 4]] (REQUEST)
r 1.230400822 _6_ MAC  --- 0 AODV 48 [0 ffffffff 4 0] ------- [4:255 -1:255 27 0] [0x2 4 1 [5 0] [2 4]] (REQUEST)
r 1.230400838 _2_ MAC  --- 0 AODV 48 [0 ffffffff 4 0] ------- [4:255 -1:255 27 0] [0x2 4 1 [5 0] [2 4]] (REQUEST)
r 1.230401237 _1_ MAC  --- 0 AODV 48 [0 ffffffff 4 0] ------- [4:255 -1:255 27 0] [0x2 4 1 [5 0] [2 4]] (REQUEST)
r 1.230401741 _0_ MAC  --- 0 AODV 48 [0 ffffffff 4 0] ------- [4:255 -1:255 27 0] [0x2 4 1 [5 0] [2 4]] (REQUEST)
r 1.230425695 _3_ RTR  --- 0 AODV 48 [0 ffffffff 4 0] ------- [4:255 -1:255 27 0] [0x2 4 1 [5 0] [2 4]] (REQUEST)
r 1.230425814 _5_ RTR  --- 0 AODV 48 [0 ffffffff 4 0] ------- [4:255 -1:255 27 0] [0x2 4 1 [5 0] [2 4]] (REQUEST)
s 1.230425814 _5_ RTR  --- 0 AODV 44 [0 0 0 0] ------- [5:255 2:255 30 4] [0x4 1 [5 4] 10.000000] (REPLY)
r 1.230425822 _6_ RTR  --- 0 AODV 48 [0 ffffffff 4 0] ------- [4:255 -1:255 27 0] [0x2 4 1 [5 0] [2 4]] (REQUEST)
s 1.236000000 _5_ MAC  --- 0 AODV 100 [0 ffffffff 5 0] ------- [5:255 -1:255 26 0] [0x2 5 1 [3 0] [0 4]] (REQUEST)
r 1.236400814 _4_ MAC  --- 0 AODV 48 [0 ffffffff 5 0] ------- [5:255 -1:255 26 0] [0x2 5 1 [3 0] [0 4]] (REQUEST)
r 1.236400868 _3_ MAC  --- 0 AODV 48 [0 ffffffff 5 0] ------- [5:255 -1:255 26 0] [0x2 5 1 [3 0] [0 4]] (REQUEST)
r 1.236401574 _2_ MAC  --- 0 AODV 48 [0 ffffffff 5 0] ------- [5:255 -1:255 26 0] [0x2 5 1 [3 0] [0 4]] (REQUEST)
r 1.236401583 _6_ MAC  --- 0 AODV 48 [0 ffffffff 5 0] ------- [5:255 -1:255 26 0] [0x2 5 1 [3 0] [0 4]] (REQUEST)
r 1.236425814 _4_ RTR  --- 0 AODV 48 [0 ffffffff 5 0] ------- [5:255 -1:255 26 0] [0x2 5 1 [3 0] [0 4]] (REQUEST)
s 1.238788930 _3_ RTR  --- 0 AODV 48 [0 ffffffff 4 0] ------- [3:255 -1:255 26 0] [0x2 5 1 [5 0] [2 4]] (REQUEST)
s 1.272000000 _3_ MAC  --- 0 AODV 100 [0 ffffffff 3 0] ------- [3:255 -1:255 26 0] [0x2 5 1 [5 0] [2 4]] (REQUEST)
r 1.272400695 _4_ MAC  --- 0 AODV 48 [0 ffffffff 3 0] ------- [3:255 -1:255 26 0] [0x2 5 1 [5 0] [2 4]] (REQUEST)
r 1.272400868 _5_ MAC  --- 0 AODV 48 [0 ffffffff 3 0] ------- [3:255 -1:255 26 0] [0x2 5 1 [5 0] [2 4]] (REQUEST)
r 1.272400939 _2_ MAC  --- 0 AODV 48 [0 ffffffff 3 0] ------- [3:255 -1:255 26 0] [0x2 5 1 [5 0] [2 4]] (REQUEST)
r 1.272401426 _6_ MAC  --- 0 AODV 48 [0 ffffffff 3 0] ------- [3:255 -1:255 26 0] [0x2 5 1 [5 0] [2 4]] (REQUEST)
r 1.272401529 _1_ MAC  --- 0 AODV 48 [0 ffffffff 3 0] ------- [3:255 -1:255 26 0] [0x2 5 1 [5 0] [2 4]] (REQUEST)
r 1.272425695 _4_ RTR  --- 0 AODV 48 [0 ffffffff 3 0] ------- [3:255 -1:255 26 0] [0x2 5 1 [5 0] [2 4]] (REQUEST)
s 1.278000000 _4_ MAC  --- 0 ARP 80 [5 3 4 0] ------- [REPLY 4/4 3/3]
r 1.278320695 _3_ MAC  --- 0 ARP 28 [5 3 4 0] ------- [REPLY 4/4 3/3]
s 1.284000000 _5_ MAC  --- 0 ARP 80 [0 ffffffff 5 0] ------- [REQUEST 5/5 0/4]
r 1.284320814 _4_ MAC  --- 0 ARP 28 [0 ffffffff 5 0] ------- [REQUEST 5/5 0/4]
r 1.284320868 _3_ MAC  --- 0 ARP 28 [0 ffffffff 5 0] ------- [REQUEST 5/5 0/4]
r 1.284321574 _2_ MAC  --- 0 ARP 28 [0 ffffffff 5 0] ------- [REQUEST 5/5 0/4]
r 1.284321583 _6_ MAC  --- 0 ARP 28 [0 ffffffff 5 0] ------- [REQUEST 5/5 0/4]
s 1.320000000 _3_ MAC  --- 0 AODV 96 [5 4 3 0] ------- [3:255 0:255 30 4] [0x4 1 [3 4] 10.000000] (REPLY)
r 1.320384695 _4_ MAC  --- 0 AODV 44 [5 4 3 0] ------- [3:255 0:255 30 4] [0x4 1 [3 4] 10.000000] (REPLY)
r 1.320409695 _4_ RTR  --- 0 AODV 44 [5 4 3 0] ------- [3:255 0:255 30 4] [0x4 1 [3 4] 10.000000] (REPLY)
f 1.320409695 _4_ RTR  --- 0 AODV 44 [5 4 3 0] ------- [3:255 0:255 29 6] [0x4 2 [3 4] 10.000000] (REPLY)
s 1.326000000 _4_ MAC  --- 0 ARP 80 [5 5 4 0] ------- [REPLY 4/4 5/5]
r 1.326320814 _5_ MAC  --- 0 ARP 28 [5 5 4 0] ------- [REPLY 4/4 5/5]
s 1.374000000 _4_ MAC  --- 0 ARP 80 [0 ffffffff 4 0] ------- [REQUEST 4/4 0/6]
r 1.374320695 _3_ MAC  --- 0 ARP 28 [0 ffffffff 4 0] ------- [REQUEST 4/4 0/6]
r 1.374320814 _5_ MAC  --- 0 ARP 28 [0 ffffffff 4 0] ------- [REQUEST 4/4 0/6]
r 1.374320822 _6_ MAC  --- 0 ARP 28 [0 ffffffff 4 0] ------- [REQUEST 4/4 0/6]
r 1.374320838 _2_ MAC  --- 0 ARP 28 [0 ffffffff 4 0] ------- [REQUEST 4/4 0/6]
r 1.374321237 _1_ MAC  --- 0 ARP 28 [0 ffffffff 4 0] ------- [REQUEST 4/4 0/6]
r 1.374321741 _0_ MAC  --- 0 ARP 28 [0 ffffffff 4 0] ------- [REQUEST 4/4 0/6]
s 1.380000000 _5_ MAC  --- 0 AODV 96 [5 4 5 0] ------- [5:255 2:255 30 4] [0x4 1 [5 4] 10.000000] (REPLY)
r 1.380384814 _4_ MAC  --- 0 AODV 44 [5 4 5 0] ------- [5:255 2:255 30 4] [0x4 1 [5 4] 10.000000] (REPLY)
r 1.380409814 _4_ RTR  --- 0 AODV 44 [5 4 5 0] ------- [5:255 2:255 30 4] [0x4 1 [5 4] 10.000000] (REPLY)
f 1.380409814 _4_ RTR  --- 0 AODV 44 [5 4 5 0] ------- [5:255 2:255 29 6] [0x4 2 [5 4] 10.000000] (REPLY)
D 1.380409814 _4_ IFQ  ARP 0 AODV 44 [5 4 4 0] ------- [3:255 0:255 29 6] [0x4 2 [3 4] 10.000000] (REPLY)
s 1.422000000 _4_ MAC  --- 0 ARP 80 [0 ffffffff 4 0] ------- [REQUEST 4/4 0/6]
r 1.422320695 _3_ MAC  --- 0 ARP 28 [0 ffffffff 4 0] ------- [REQUEST 4/4 0/6]
r 1.422320814 _5_ MAC  --- 0 ARP 28 [0 ffffffff 4 0] ------- [REQUEST 4/4 0/6]
r 1.422320822 _6_ MAC  --- 0 ARP 28 [0 ffffffff 4 0] ------- [REQUEST 4/4 0/6]
r 1.422320838 _2_ MAC  --- 0 ARP 28 [0 ffffffff 4 0] ------- [REQUEST 4/4 0/6]
r 1.422321237 _1_ MAC  --- 0 ARP 28 [0 ffffffff 4 0] ------- [REQUEST 4/4 0/6]
r 1.422321741 _0_ MAC  --- 0 ARP 28 [0 ffffffff 4 0] ------- [REQUEST 4/4 0/6]
s 1.434000000 _6_ MAC  --- 0 ARP 80 [5 4 6 0] ------- [REPLY 6/6 4/4]
r 1.434320822 _4_ MAC  --- 0 ARP 28 [5 4 6 0] ------- [REPLY 6/6 4/4]
s 1.470000000 _4_ MAC  --- 0 AODV 96 [5 6 4 0] ------- [5:255 2:255 29 6] [0x4 2 [5 4] 10.000000] (REPLY)
r 1.470384822 _6_ MAC  --- 0 AODV 44 [5 6 4 0] ------- [5:255 2:255 29 6] [0x4 2 [5 4] 10.000000] (REPLY)
r 1.470409822 _6_ RTR  --- 0 AODV 44 [5 6 4 0] ------- [5:255 2:255 29 6] [0x4 2 [5 4] 10.000000] (REPLY)
f 1.470409822 _6_ RTR  --- 0 AODV 44 [5 6 4 0] ------- [5:255 2:255 28 1] [0x4 3 [5 4] 10.000000] (REPLY)
s 1.482000000 _6_ MAC  --- 0 ARP 80 [5 4 6 0] ------- [REPLY 6/6 4/4]
r 1.482320822 _4_ MAC  --- 0 ARP 28 [5 4 6 0] ------- [REPLY 6/6 4/4]
s 1.530000000 _6_ MAC  --- 0 ARP 80 [0 ffffffff 6 0] ------- [REQUEST 6/6 0/1]
r 1.530320790 _1_ MAC  --- 0 ARP 28 [0 ffffffff 6 0] ------- [REQUEST 6/6 0/1]
r 1.530320822 _4_ MAC  --- 0 ARP 28 [0 ffffffff 6 0] ------- [REQUEST 6/6 0/1]
r 1.530320892 _2_ MAC  --- 0 ARP 28 [0 ffffffff 6 0] ------- [REQUEST 6/6 0/1]
r 1.530321384 _0_ MAC  --- 0 ARP 28 [0 ffffffff 6 0] ------- [REQUEST 6/6 0/1]
r 1.530321426 _3_ MAC  --- 0 ARP 28 [0 ffffffff 6 0] ------- [REQUEST 6/6 0/1]
r 1.530321583 _5_ MAC  --- 0 ARP 28 [0 ffffffff 6 0] ------- [REQUEST 6/6 0/1]
s 1.548000000 _1_ MAC  --- 0 ARP 80 [5 6 1 0] ------- [REPLY 1/1 6/6]
r 1.548320790 _6_ MAC  --- 0 ARP 28 [5 6 1 0] ------- [REPLY 1/1 6/6]
s 1.626000000 _6_ MAC  --- 0 AODV 96 [5 1 6 0] ------- [5:255 2:255 28 1] [0x4 3 [5 4] 10.000000] (REPLY)
r 1.626384790 _1_ MAC  --- 0 AODV 44 [5 1 6 0] ------- [5:255 2:255 28 1] [0x4 3 [5 4] 10.000000] (REPLY)
r 1.626409790 _1_ RTR  --- 0 AODV 44 [5 1 6 0] ------- [5:255 2:255 28 1] [0x4 3 [5 4] 10.000000] (REPLY)
f 1.626409790 _1_ RTR  --- 0 AODV 44 [5 1 6 0] ------- [5:255 2:255 27 2] [0x4 4 [5 4] 10.000000] (REPLY)
s 1.644000000 _1_ MAC  --- 0 ARP 80 [0 ffffffff 1 0] ------- [REQUEST 1/1 0/2]
r 1.644320594 _0_ MAC  --- 0 ARP 28 [0 ffffffff 1 0] ------- [REQUEST 1/1 0/2]
r 1.644320607 _2_ MAC  --- 0 ARP 28 [0 ffffffff 1 0] ------- [REQUEST 1/1 0/2]
r 1.644320790 _6_ MAC  --- 0 ARP 28 [0 ffffffff 1 0] ------- [REQUEST 1/1 0/2]
r 1.644321237 _4_ MAC  --- 0 ARP 28 [0 ffffffff 1 0] ------- [REQUEST 1/1 0/2]
r 1.644321529 _3_ MAC  --- 0 ARP 28 [0 ffffffff 1 0] ------- [REQUEST 1/1 0/2]
s 1.698000000 _2_ MAC  --- 0 ARP 80 [5 1 2 0] ------- [REPLY 2/2 1/1]
r 1.698320607 _1_ MAC  --- 0 ARP 28 [5 1 2 0] ------- [REPLY 2/2 1/1]
s 1.740000000 _1_ MAC  --- 0 AODV 96 [5 2 1 0] ------- [5:255 2:255 27 2] [0x4 4 [5 4] 10.000000] (REPLY)
r 1.740384607 _2_ MAC  --- 0 AODV 44 [5 2 1 0] ------- [5:255 2:255 27 2] [0x4 4 [5 4] 10.000000] (REPLY)
r 1.740409607 _2_ RTR  --- 0 AODV 44 [5 2 1 0] ------- [5:255 2:255 27 2] [0x4 4 [5 4] 10.000000] (REPLY)
s 1.740409607 _2_ RTR  --- 1 tcp 40 [0 0 0 0] ------- [2:0 5:0 30 1] [0 0] 0 0
s 1.794000000 _2_ MAC  --- 1 tcp 92 [5 1 2 0] ------- [2:0 5:0 30 1] [0 0] 0 0
r 1.794368607 _1_ MAC  --- 1 tcp 40 [5 1 2 0] ------- [2:0 5:0 30 1] [0 0] 1 0
r 1.794393607 _1_ RTR  --- 1 tcp 40 [5 1 2 0] ------- [2:0 5:0 30 1] [0 0] 1 0
f 1.794393607 _1_ RTR  --- 1 tcp 40 [5 1 2 0] ------- [2:0 5:0 29 6] [0 0] 1 0
s 1.836000000 _1_ MAC  --- 1 tcp 92 [5 6 1 0] ------- [2:0 5:0 29 6] [0 0] 1 0
r 1.836368790 _6_ MAC  --- 1 tcp 40 [5 6 1 0] ------- [2:0 5:0 29 6] [0 0] 2 0
r 1.836393790 _6_ RTR  --- 1 tcp 40 [5 6 1 0] ------- [2:0 5:0 29 6] [0 0] 2 0
f 1.836393790 _6_ RTR  --- 1 tcp 40 [5 6 1 0] ------- [2:0 5:0 28 4] [0 0] 2 0
s 1.914000000 _6_ MAC  --- 1 tcp 92 [5 4 6 0] ------- [2:0 5:0 28 4] [0 0] 2 0
r 1.914368822 _4_ MAC  --- 1 tcp 40 [5 4 6 0] ------- [2:0 5:0 28 4] [0 0] 3 0
r 1.914393822 _4_ RTR  --- 1 tcp 40 [5 4 6 0] ------- [2:0 5:0 28 4] [0 0] 3 0
f 1.914393822 _4_ RTR  --- 1 tcp 40 [5 4 6 0] ------- [2:0 5:0 27 5] [0 0] 3 0
s 1.950000000 _4_ MAC  --- 1 tcp 92 [5 5 4 0] ------- [2:0 5:0 27 5] [0 0] 3 0
r 1.950368814 _5_ MAC  --- 1 tcp 40 [5 5 4 0] ------- [2:0 5:0 27 5] [0 0] 4 0
r 1.950393814 _5_ AGT  --- 1 tcp 40 [5 5 4 0] ------- [2:0 5:0 27 5] [0 0] 4 0
s 1.950393814 _5_ AGT  --- 2 ack 40 [0 0 0 0] ------- [5:0 2:0 32 0] [0 0] 0 0
r 1.950393814 _5_ RTR  --- 2 ack 40 [0 0 0 0] ------- [5:0 2:0 32 0] [0 0] 0 0
s 1.950393814 _5_ RTR  --- 2 ack 40 [0 0 0 0] ------- [5:0 2:0 30 4] [0 0] 0 0
s 2.004000000 _5_ MAC  --- 2 ack 92 [5 4 5 0] ------- [5:0 2:0 30 4] [0 0] 0 0
r 2.004368814 _4_ MAC  --- 2 ack 40 [5 4 5 0] ------- [5:0 2:0 30 4] [0 0] 1 0
r 2.004393814 _4_ RTR  --- 2 ack 40 [5 4 5 0] ------- [5:0 2:0 30 4] [0 0] 1 0
f 2.004393814 _4_ RTR  --- 2 ack 40 [5 4 5 0] ------- [5:0 2:0 29 6] [0 0] 1 0
s 2.046000000 _4_ MAC  --- 2 ack 92 [5 6 4 0] ------- [5:0 2:0 29 6] [0 0] 1 0
r 2.046368822 _6_ MAC  --- 2 ack 40 [5 6 4 0] ------- [5:0 2:0 29 6] [0 0] 2 0
r 2.046393822 _6_ RTR  --- 2 ack 40 [5 6 4 0] ------- [5:0 2:0 29 6] [0 0] 2 0
f 2.046393822 _6_ RTR  --- 2 ack 40 [5 6 4 0] ------- [5:0 2:0 28 1] [0 0] 2 0
s 2.106000000 _6_ MAC  --- 2 ack 92 [5 1 6 0] ------- [5:0 2:0 28 1] [0 0] 2 0
r 2.106368790 _1_ MAC  --- 2 ack 40 [5 1 6 0] ------- [5:0 2:0 28 1] [0 0] 3 0
r 2.106393790 _1_ RTR  --- 2 ack 40 [5 1 6 0] ------- [5:0 2:0 28 1] [0 0] 3 0
f 2.106393790 _1_ RTR  --- 2 ack 40 [5 1 6 0] ------- [5:0 2:0 27 2] [0 0] 3 0
s 2.124000000 _1_ MAC  --- 2 ack 92 [5 2 1 0] ------- [5:0 2:0 27 2] [0 0] 3 0
r 2.124368607 _2_ MAC  --- 2 ack 40 [5 2 1 0] ------- [5:0 2:0 27 2] [0 0] 4 0
r 2.124393607 _2_ AGT  --- 2 ack 40 [5 2 1 0] ------- [5:0 2:0 27 2] [0 0] 4 0
M 3.00000 0 (333.00, 171.00, 0.00), (1100.00, 600.00), 20.00
s 3.000000000 _0_ RTR  --- 0 AODV 48 [0 0 0 0] ------- [0:255 -1:255 30 0] [0x2 1 2 [3 0] [0 6]] (REQUEST)
s 3.030000000 _0_ MAC  --- 0 AODV 100 [0 ffffffff 0 0] ------- [0:255 -1:255 30 0] [0x2 1 2 [3 0] [0 6]] (REQUEST)
r 3.030400592 _1_ MAC  --- 0 AODV 48 [0 ffffffff 0 0] ------- [0:255 -1:255 30 0] [0x2 1 2 [3 0] [0 6]] (REQUEST)
r 3.030400946 _2_ MAC  --- 0 AODV 48 [0 ffffffff 0 0] ------- [0:255 -1:255 30 0] [0x2 1 2 [3 0] [0 6]] (REQUEST)
r 3.030401382 _6_ MAC  --- 0 AODV 48 [0 ffffffff 0 0] ------- [0:255 -1:255 30 0] [0x2 1 2 [3 0] [0 6]] (REQUEST)
r 3.030401739 _4_ MAC  --- 0 AODV 48 [0 ffffffff 0 0] ------- [0:255 -1:255 30 0] [0x2 1 2 [3 0] [0 6]] (REQUEST)
r 3.030425592 _1_ RTR  --- 0 AODV 48 [0 ffffffff 0 0] ------- [0:255 -1:255 30 0] [0x2 1 2 [3 0] [0 6]] (REQUEST)
s 3.032067046 _1_ RTR  --- 0 AODV 48 [0 ffffffff 0 0] ------- [1:255 -1:255 29 0] [0x2 2 2 [3 0] [0 6]] (REQUEST)
s 3.084000000 _1_ MAC  --- 0 AODV 100 [0 ffffffff 1 0] ------- [1:255 -1:255 29 0] [0x2 2 2 [3 0] [0 6]] (REQUEST)
r 3.084400589 _0_ MAC  --- 0 AODV 48 [0 ffffffff 1 0] ------- [1:255 -1:255 29 0] [0x2 2 2 [3 0] [0 6]] (REQUEST)
r 3.084400607 _2_ MAC  --- 0 AODV 48 [0 ffffffff 1 0] ------- [1:255 -1:255 29 0] [0x2 2 2 [3 0] [0 6]] (REQUEST)
r 3.084400790 _6_ MAC  --- 0 AODV 48 [0 ffffffff 1 0] ------- [1:255 -1:255 29 0] [0x2 2 2 [3 0] [0 6]] (REQUEST)
r 3.084401237 _4_ MAC  --- 0 AODV 48 [0 ffffffff 1 0] ------- [1:255 -1:255 29 0] [0x2 2 2 [3 0] [0 6]] (REQUEST)
r 3.084401529 _3_ MAC  --- 0 AODV 48 [0 ffffffff 1 0] ------- [1:255 -1:255 29 0] [0x2 2 2 [3 0] [0 6]] (REQUEST)
r 3.084425589 _0_ RTR  --- 0 AODV 48 [0 ffffffff 1 0] ------- [1:255 -1:255 29 0] [0x2 2 2 [3 0] [0 6]] (REQUEST)
r 3.084425607 _2_ RTR  --- 0 AODV 48 [0 ffffffff 1 0] ------- [1:255 -1:255 29 0] [0x2 2 2 [3 0] [0 6]] (REQUEST)
r 3.084425790 _6_ RTR  --- 0 AODV 48 [0 ffffffff 1 0] ------- [1:255 -1:255 29 0] [0x2 2 2 [3 0] [0 6]] (REQUEST)
s 3.084853553 _2_ RTR  --- 0 AODV 48 [0 ffffffff 1 0] ------- [2:255 -1:255 28 0] [0x2 3 2 [3 0] [0 6]] (REQUEST)
s 3.090826467 _6_ RTR  --- 0 AODV 48 [0 ffffffff 1 0] ------- [6:255 -1:255 28 0] [0x2 3 2 [3 0] [0 6]] (REQUEST)
s 3.138000000 _2_ MAC  --- 0 AODV 100 [0 ffffffff 2 0] ------- [2:255 -1:255 28 0] [0x2 3 2 [3 0] [0 6]] (REQUEST)
r 3.138400607 _1_ MAC  --- 0 AODV 48 [0 ffffffff 2 0] ------- [2:255 -1:255 28 0] [0x2 3 2 [3 0] [0 6]] (REQUEST)
r 3.138400838 _4_ MAC  --- 0 AODV 48 [0 ffffffff 2 0] ------- [2:255 -1:255 28 0] [0x2 3 2 [3 0] [0 6]] (REQUEST)
r 3.138400892 _6_ MAC  --- 0 AODV 48 [0 ffffffff 2 0] ------- [2:255 -1:255 28 0] [0x2 3 2 [3 0] [0 6]] (REQUEST)
r 3.138400939 _0_ MAC  --- 0 AODV 48 [0 ffffffff 2 0] ------- [2:255 -1:255 28 0] [0x2 3 2 [3 0] [0 6]] (REQUEST)
r 3.138400939 _3_ MAC  --- 0 AODV 48 [0 ffffffff 2 0] ------- [2:255 -1:255 28 0] [0x2 3 2 [3 0] [0 6]] (REQUEST)
r 3.138401574 _5_ MAC  --- 0 AODV 48 [0 ffffffff 2 0] ------- [2:255 -1:255 28 0] [0x2 3 2 [3 0] [0 6]] (REQUEST)
r 3.138425607 _1_ RTR  --- 0 AODV 48 [0 ffffffff 2 0] ------- [2:255 -1:255 28 0] [0x2 3 2 [3 0] [0 6]] (REQUEST)
s 3.162000000 _6_ MAC  --- 0 AODV 100 [0 ffffffff 6 0] ------- [6:255 -1:255 28 0] [0x2 3 2 [3 0] [0 6]] (REQUEST)
r 3.162400790 _1_ MAC  --- 0 AODV 48 [0 ffffffff 6 0] ------- [6:255 -1:255 28 0] [0x2 3 2 [3 0] [0 6]] (REQUEST)
r 3.162400822 _4_ MAC  --- 0 AODV 48 [0 ffffffff 6 0] ------- [6:255 -1:255 28 0] [0x2 3 2 [3 0] [0 6]] (REQUEST)
r 3.162400892 _2_ MAC  --- 0 AODV 48 [0 ffffffff 6 0] ------- [6:255 -1:255 28 0] [0x2 3 2 [3 0] [0 6]] (REQUEST)
r 3.162401375 _0_ MAC  --- 0 AODV 48 [0 ffffffff 6 0] ------- [6:255 -1:255 28 0] [0x2 3 2 [3 0] [0 6]] (REQUEST)
r 3.162401426 _3_ MAC  --- 0 AODV 48 [0 ffffffff 6 0] ------- [6:255 -1:255 28 0] [0x2 3 2 [3 0] [0 6]] (REQUEST)
r 3.162401583 _5_ MAC  --- 0 AODV 48 [0 ffffffff 6 0] ------- [6:255 -1:255 28 0] [0x2 3 2 [3 0] [0 6]] (REQUEST)
r 3.162425790 _1_ RTR  --- 0 AODV 48 [0 ffffffff 6 0] ------- [6:255 -1:255 28 0] [0x2 3 2 [3 0] [0 6]] (REQUEST)
r 3.162425822 _4_ RTR  --- 0 AODV 48 [0 ffffffff 6 0] ------- [6:255 -1:255 28 0] [0x2 3 2 [3 0] [0 6]] (REQUEST)
s 3.162425822 _4_ RTR  --- 0 AODV 44 [0 0 0 0] ------- [4:255 0:255 30 6] [0x4 2 [3 4] 8.000000] (REPLY)
s 3.198000000 _4_ MAC  --- 0 AODV 96 [5 6 4 0] ------- [4:255 0:255 30 6] [0x4 2 [3 4] 8.000000] (REPLY)
r 3.198384822 _6_ MAC  --- 0 AODV 44 [5 6 4 0] ------- [4:255 0:255 30 6] [0x4 2 [3 4] 8.000000] (REPLY)
r 3.198409822 _6_ RTR  --- 0 AODV 44 [5 6 4 0] ------- [4:255 0:255 30 6] [0x4 2 [3 4] 8.000000] (REPLY)
f 3.198409822 _6_ RTR  --- 0 AODV 44 [5 6 4 0] ------- [4:255 0:255 29 1] [0x4 3 [3 4] 8.000000] (REPLY)
s 3.258000000 _6_ MAC  --- 0 AODV 96 [5 1 6 0] ------- [4:255 0:255 29 1] [0x4 3 [3 4] 8.000000] (REPLY)
r 3.258384790 _1_ MAC  --- 0 AODV 44 [5 1 6 0] ------- [4:255 0:255 29 1] [0x4 3 [3 4] 8.000000] (REPLY)
r 3.258409790 _1_ RTR  --- 0 AODV 44 [5 1 6 0] ------- [4:255 0:255 29 1] [0x4 3 [3 4] 8.000000] (REPLY)
f 3.258409790 _1_ RTR  --- 0 AODV 44 [5 1 6 0] ------- [4:255 0:255 28 0] [0x4 4 [3 4] 8.000000] (REPLY)
s 3.276000000 _1_ MAC  --- 0 ARP 80 [0 ffffffff 1 0] ------- [REQUEST 1/1 0/0]
r 3.276320577 _0_ MAC  --- 0 ARP 28 [0 ffffffff 1 0] ------- [REQUEST 1/1 0/0]
r 3.276320607 _2_ MAC  --- 0 ARP 28 [0 ffffffff 1 0] ------- [REQUEST 1/1 0/0]
r 3.276320790 _6_ MAC  --- 0 ARP 28 [0 ffffffff 1 0] ------- [REQUEST 1/1 0/0]
r 3.276321237 _4_ MAC  --- 0 ARP 28 [0 ffffffff 1 0] ------- [REQUEST 1/1 0/0]
r 3.276321529 _3_ MAC  --- 0 ARP 28 [0 ffffffff 1 0] ------- [REQUEST 1/1 0/0]
s 3.318000000 _0_ MAC  --- 0 ARP 80 [5 1 0 0] ------- [REPLY 0/0 1/1]
r 3.318320575 _1_ MAC  --- 0 ARP 28 [5 1 0 0] ------- [REPLY 0/0 1/1]
s 3.372000000 _1_ MAC  --- 0 AODV 96 [5 0 1 0] ------- [4:255 0:255 28 0] [0x4 4 [3 4] 8.000000] (REPLY)
r 3.372384572 _0_ MAC  --- 0 AODV 44 [5 0 1 0] ------- [4:255 0:255 28 0] [0x4 4 [3 4] 8.000000] (REPLY)
r 3.372409572 _0_ RTR  --- 0 AODV 44 [5 0 1 0] ------- [4:255 0:255 28 0] [0x4 4 [3 4] 8.000000] (REPLY)
s 3.372409572 _0_ RTR  --- 0 tcp 40 [0 0 0 0] ------- [0:0 3:0 30 1] [0 0] 0 0
s 3.414000000 _0_ MAC  --- 0 tcp 92 [5 1 0 0] ------- [0:0 3:0 30 1] [0 0] 0 0
r 3.414368569 _1_ MAC  --- 0 tcp 40 [5 1 0 0] ------- [0:0 3:0 30 1] [0 0] 1 0
r 3.414393569 _1_ RTR  --- 0 tcp 40 [5 1 0 0] ------- [0:0 3:0 30 1] [0 0] 1 0
f 3.414393569 _1_ RTR  --- 0 tcp 40 [5 1 0 0] ------- [0:0 3:0 29 6] [0 0] 1 0
s 3.468000000 _1_ MAC  --- 0 tcp 92 [5 6 1 0] ------- [0:0 3:0 29 6] [0 0] 1 0
r 3.468368790 _6_ MAC  --- 0 tcp 40 [5 6 1 0] ------- [0:0 3:0 29 6] [0 0] 2 0
r 3.468393790 _6_ RTR  --- 0 tcp 40 [5 6 1 0] ------- [0:0 3:0 29 6] [0 0] 2 0
f 3.468393790 _6_ RTR  --- 0 tcp 40 [5 6 1 0] ------- [0:0 3:0 28 4] [0 0] 2 0
s 3.546000000 _6_ MAC  --- 0 tcp 92 [5 4 6 0] ------- [0:0 3:0 28 4] [0 0] 2 0
r 3.546368822 _4_ MAC  --- 0 tcp 40 [5 4 6 0] ------- [0:0 3:0 28 4] [0 0] 3 0
r 3.546393822 _4_ RTR  --- 0 tcp 40 [5 4 6 0] ------- [0:0 3:0 28 4] [0 0] 3 0
f 3.546393822 _4_ RTR  --- 0 tcp 40 [5 4 6 0] ------- [0:0 3:0 27 3] [0 0] 3 0
s 3.582000000 _4_ MAC  --- 0 tcp 92 [5 3 4 0] ------- [0:0 3:0 27 3] [0 0] 3 0
r 3.582368695 _3_ MAC  --- 0 tcp 40 [5 3 4 0] ------- [0:0 3:0 27 3] [0 0] 4 0
r 3.582393695 _3_ AGT  --- 0 tcp 40 [5 3 4 0] ------- [0:0 3:0 27 3] [0 0] 4 0
s 3.582393695 _3_ AGT  --- 3 ack 40 [0 0 0 0] ------- [3:0 0:0 32 0] [0 0] 0 0
r 3.582393695 _3_ RTR  --- 3 ack 40 [0 0 0 0] ------- [3:0 0:0 32 0] [0 0] 0 0
s 3.582393695 _3_ RTR  --- 3 ack 40 [0 0 0 0] ------- [3:0 0:0 30 4] [0 0] 0 0
s 3.624000000 _3_ MAC  --- 3 ack 92 [5 4 3 0] ------- [3:0 0:0 30 4] [0 0] 0 0
r 3.624368695 _4_ MAC  --- 3 ack 40 [5 4 3 0] ------- [3:0 0:0 30 4] [0 0] 1 0
r 3.624393695 _4_ RTR  --- 3 ack 40 [5 4 3 0] ------- [3:0 0:0 30 4] [0 0] 1 0
f 3.624393695 _4_ RTR  --- 3 ack 40 [5 4 3 0] ------- [3:0 0:0 29 6] [0 0] 1 0
s 3.678000000 _4_ MAC  --- 3 ack 92 [5 6 4 0] ------- [3:0 0:0 29 6] [0 0] 1 0
r 3.678368822 _6_ MAC  --- 3 ack 40 [5 6 4 0] ------- [3:0 0:0 29 6] [0 0] 2 0
r 3.678393822 _6_ RTR  --- 3 ack 40 [5 6 4 0] ------- [3:0 0:0 29 6] [0 0] 2 0
f 3.678393822 _6_ RTR  --- 3 ack 40 [5 6 4 0] ------- [3:0 0:0 28 1] [0 0] 2 0
s 3.738000000 _6_ MAC  --- 3 ack 92 [5 1 6 0] ------- [3:0 0:0 28 1] [0 0] 2 0
r 3.738368790 _1_ MAC  --- 3 ack 40 [5 1 6 0] ------- [3:0 0:0 28 1] [0 0] 3 0