n -t * -s 0  -x 333 -y 171 -Z 0 -z 20  -v circle -c black
n -t * -s 1  -x 438 -y 315 -Z 0 -z 20  -v circle -c black
n -t * -s 2  -x 607 -y 247 -Z 0 -z 20  -v circle -c black
n -t * -s 3  -x 888 -y 226 -Z 0 -z 20  -v circle -c black
n -t * -s 4  -x 796 -y 413 -Z 0 -z 20  -v circle -c black
n -t * -s 5  -x 1039 -y 438 -Z 0 -z 20  -v circle -c black
n -t * -s 6  -x 570 -y 512 -Z 0 -z 20  -v circle -c black
V -t * -v 1.0a5 -a 0
W -t * -x 1139 -y 612
A -t * -n 1 -p 0 -o 0x7fffffff -c 30 -a 1
A -t * -h 1 -m 1073741823 -s 0
+ -t 1.000000000 -s 0 -d -1 -p tcp -e 40 -c 2 -a 0 -i 0 -k AGT 
- -t 1.000000000 -s 0 -d -1 -p tcp -e 40 -c 2 -a 0 -i 0 -k AGT
h -t 1.000000000 -s 0 -d -1 -p tcp -e 40 -c 2 -a 0 -i 0 -k AGT
+ -t 1.000000000 -s 2 -d -1 -p tcp -e 40 -c 2 -a 0 -i 1 -k AGT 
- -t 1.000000000 -s 2 -d -1 -p tcp -e 40 -c 2 -a 0 -i 1 -k AGT
h -t 1.000000000 -s 2 -d -1 -p tcp -e 40 -c 2 -a 0 -i 1 -k AGT
+ -t 1.000000000 -s 0 -d -1 -p AODV -e 48 -c 2 -a 0 -i 0 -k RTR 
- -t 1.000000000 -s 0 -d -1 -p AODV -e 48 -c 2 -a 0 -i 0 -k RTR
h -t 1.000000000 -s 0 -d -1 -p AODV -e 48 -c 2 -a 0 -i 0 -k RTR
+ -t 1.000000000 -s 2 -d -1 -p AODV -e 48 -c 2 -a 0 -i 0 -k RTR 
- -t 1.000000000 -s 2 -d -1 -p AODV -e 48 -c 2 -a 0 -i 0 -k RTR
h -t 1.000000000 -s 2 -d -1 -p AODV -e 48 -c 2 -a 0 -i 0 -k RTR
+ -t 1.014000000 -s 0 -d -1 -p AODV -e 100 -c 2 -a 0 -i 0 -k MAC 
- -t 1.014000000 -s 0 -d -1 -p AODV -e 100 -c 2 -a 0 -i 0 -k MAC
h -t 1.014000000 -s 0 -d -1 -p AODV -e 100 -c 2 -a 0 -i 0 -k MAC
r -t 1.014400594 -s 1 -d -1 -p AODV -e 48 -c 2 -a 0 -i 0 -k MAC
r -t 1.014400948 -s 2 -d -1 -p AODV -e 48 -c 2 -a 0 -i 0 -k MAC
r -t 1.014401384 -s 6 -d -1 -p AODV -e 48 -c 2 -a 0 -i 0 -k MAC
r -t 1.014401741 -s 4 -d -1 -p AODV -e 48 -c 2 -a 0 -i 0 -k MAC
r -t 1.014425594 -s 1 -d -1 -p AODV -e 48 -c 2 -a 0 -i 0 -k RTR
+ -t 1.014567641 -s 1 -d -1 -p AODV -e 48 -c 2 -a 0 -i 0 -k RTR 
- -t 1.014567641 -s 1 -d -1 -p AODV -e 48 -c 2 -a 0 -i 0 -k RTR
h -t 1.014567641 -s 1 -d -1 -p AODV -e 48 -c 2 -a 0 -i 0 -k RTR
+ -t 1.026000000 -s 2 -d -1 -p AODV -e 100 -c 2 -a 0 -i 0 -k MAC 
- -t 1.026000000 -s 2 -d -1 -p AODV -e 100 -c 2 -a 0 -i 0 -k MAC
h -t 1.026000000 -s 2 -d -1 -p AODV -e 100 -c 2 -a 0 -i 0 -k MAC
r -t 1.026400607 -s 1 -d -1 -p AODV -e 48 -c 2 -a 0 -i 0 -k MAC
r -t 1.026400838 -s 4 -d -1 -p AODV -e 48 -c 2 -a 0 -i 0 -k MAC
r -t 1.026400892 -s 6 -d -1 -p AODV -e 48 -c 2 -a 0 -i 0 -k MAC
r -t 1.026400939 -s 3 -d -1 -p AODV -e 48 -c 2 -a 0 -i 0 -k MAC
r -t 1.026400948 -s 0 -d -1 -p AODV -e 48 -c 2 -a 0 -i 0 -k MAC
r -t 1.026401574 -s 5 -d -1 -p AODV -e 48 -c 2 -a 0 -i 0 -k MAC
r -t 1.026425607 -s 1 -d -1 -p AODV -e 48 -c 2 -a 0 -i 0 -k RTR
+ -t 1.027306834 -s 1 -d -1 -p AODV -e 48 -c 2 -a 0 -i 0 -k RTR 
- -t 1.027306834 -s 1 -d -1 -p AODV -e 48 -c 2 -a 0 -i 0 -k RTR
h -t 1.027306834 -s 1 -d -1 -p AODV -e 48 -c 2 -a 0 -i 0 -k RTR
+ -t 1.068000000 -s 1 -d -1 -p AODV -e 100 -c 2 -a 0 -i 0 -k MAC 
- -t 1.068000000 -s 1 -d -1 -p AODV -e 100 -c 2 -a 0 -i 0 -k MAC
h -t 1.068000000 -s 1 -d -1 -p AODV -e 100 -c 2 -a 0 -i 0 -k MAC
r -t 1.068400594 -s 0 -d -1 -p AODV -e 48 -c 2 -a 0 -i 0 -k MAC
r -t 1.068400607 -s 2 -d -1 -p AODV -e 48 -c 2 -a 0 -i 0 -k MAC
r -t 1.068400790 -s 6 -d -1 -p AODV -e 48 -c 2 -a 0 -i 0 -k MAC
r -t 1.068401237 -s 4 -d -1 -p AODV -e 48 -c 2 -a 0 -i 0 -k MAC
r -t 1.068401529 -s 3 -d -1 -p AODV -e 48 -c 2 -a 0 -i 0 -k MAC
r -t 1.068425594 -s 0 -d -1 -p AODV -e 48 -c 2 -a 0 -i 0 -k RTR
r -t 1.068425607 -s 2 -d -1 -p AODV -e 48 -c 2 -a 0 -i 0 -k RTR
r -t 1.068425790 -s 6 -d -1 -p AODV -e 48 -c 2 -a 0 -i 0 -k RTR
+ -t 1.072837341 -s 2 -d -1 -p AODV -e 48 -c 2 -a 0 -i 0 -k RTR 
- -t 1.072837341 -s 2 -d -1 -p AODV -e 48 -c 2 -a 0 -i 0 -k RTR
h -t 1.072837341 -s 2 -d -1 -p AODV -e 48 -c 2 -a 0 -i 0 -k RTR
+ -t 1.076417345 -s 6 -d -1 -p AODV -e 48 -c 2 -a 0 -i 0 -k RTR 
- -t 1.076417345 -s 6 -d -1 -p AODV -e 48 -c 2 -a 0 -i 0 -k RTR
h -t 1.076417345 -s 6 -d -1 -p AODV -e 48 -c 2 -a 0 -i 0 -k RTR
+ -t 1.116000000 -s 1 -d -1 -p AODV -e 100 -c 2 -a 0 -i 0 -k MAC 
- -t 1.116000000 -s 1 -d -1 -p AODV -e 100 -c 2 -a 0 -i 0 -k MAC
h -t 1.116000000 -s 1 -d -1 -p AODV -e 100 -c 2 -a 0 -i 0 -k MAC
r -t 1.116400594 -s 0 -d -1 -p AODV -e 48 -c 2 -a 0 -i 0 -k MAC
r -t 1.116400607 -s 2 -d -1 -p AODV -e 48 -c 2 -a 0 -i 0 -k MAC
r -t 1.116400790 -s 6 -d -1 -p AODV -e 48 -c 2 -a 0 -i 0 -k MAC
r -t 1.116401237 -s 4 -d -1 -p AODV -e 48 -c 2 -a 0 -i 0 -k MAC
r -t 1.116401529 -s 3 -d -1 -p AODV -e 48 -c 2 -a 0 -i 0 -k MAC
r -t 1.116425594 -s 0 -d -1 -p AODV -e 48 -c 2 -a 0 -i 0 -k RTR
r -t 1.116425607 -s 2 -d -1 -p AODV -e 48 -c 2 -a 0 -i 0 -k RTR
r -t 1.116425790 -s 6 -d -1 -p AODV -e 48 -c 2 -a 0 -i 0 -k RTR
+ -t 1.119555212 -s 0 -d -1 -p AODV -e 48 -c 2 -a 0 -i 0 -k RTR 
- -t 1.119555212 -s 0 -d -1 -p AODV -e 48 -c 2 -a 0 -i 0 -k RTR
h -t 1.119555212 -s 0 -d -1 -p AODV -e 48 -c 2 -a 0 -i 0 -k RTR
+ -t 1.122000000 -s 2 -d -1 -p AODV -e 100 -c 2 -a 0 -i 0 -k MAC 
- -t 1.122000000 -s 2 -d -1 -p AODV -e 100 -c 2 -a 0 -i 0 -k MAC
h -t 1.122000000 -s 2 -d -1 -p AODV -e 100 -c 2 -a 0 -i 0 -k MAC
r -t 1.122400607 -s 1 -d -1 -p AODV -e 48 -c 2 -a 0 -i 0 -k MAC
r -t 1.122400838 -s 4 -d -1 -p AODV -e 48 -c 2 -a 0 -i 0 -k MAC
r -t 1.122400892 -s 6 -d -1 -p AODV -e 48 -c 2 -a 0 -i 0 -k MAC
r -t 1.122400939 -s 3 -d -1 -p AODV -e 48 -c 2 -a 0 -i 0 -k MAC
r -t 1.122400948 -s 0 -d -1 -p AODV -e 48 -c 2 -a 0 -i 0 -k MAC
r -t 1.122401574 -s 5 -d -1 -p AODV -e 48 -c 2 -a 0 -i 0 -k MAC
r -t 1.122425607 -s 1 -d -1 -p AODV -e 48 -c 2 -a 0 -i 0 -k RTR
+ -t 1.124590551 -s 6 -d -1 -p AODV -e 48 -c 2 -a 0 -i 0 -k RTR 
- -t 1.124590551 -s 6 -d -1 -p AODV -e 48 -c 2 -a 0 -i 0 -k RTR
h -t 1.124590551 -s 6 -d -1 -p AODV -e 48 -c 2 -a 0 -i 0 -k RTR
+ -t 1.146000000 -s 6 -d -1 -p AODV -e 100 -c 2 -a 0 -i 0 -k MAC 
- -t 1.146000000 -s 6 -d -1 -p AODV -e 100 -c 2 -a 0 -i 0 -k MAC
h -t 1.146000000 -s 6 -d -1 -p AODV -e 100 -c 2 -a 0 -i 0 -k MAC
r -t 1.146400790 -s 1 -d -1 -p AODV -e 48 -c 2 -a 0 -i 0 -k MAC
r -t 1.146400822 -s 4 -d -1 -p AODV -e 48 -c 2 -a 0 -i 0 -k MAC
r -t 1.146400892 -s 2 -d -1 -p AODV -e 48 -c 2 -a 0 -i 0 -k MAC
r -t 1.146401384 -s 0 -d -1 -p AODV -e 48 -c 2 -a 0 -i 0 -k MAC
r -t 1.146401426 -s 3 -d -1 -p AODV -e 48 -c 2 -a 0 -i 0 -k MAC
r -t 1.146401583 -s 5 -d -1 -p AODV -e 48 -c 2 -a 0 -i 0 -k MAC
r -t 1.146425790 -s 1 -d -1 -p AODV -e 48 -c 2 -a 0 -i 0 -k RTR
r -t 1.146425822 -s 4 -d -1 -p AODV -e 48 -c 2 -a 0 -i 0 -k RTR
+ -t 1.148771840 -s 4 -d -1 -p AODV -e 48 -c 2 -a 0 -i 0 -k RTR 
- -t 1.148771840 -s 4 -d -1 -p AODV -e 48 -c 2 -a 0 -i 0 -k RTR
h -t 1.148771840 -s 4 -d -1 -p AODV -e 48 -c 2 -a 0 -i 0 -k RTR
+ -t 1.158000000 -s 0 -d -1 -p AODV -e 100 -c 2 -a 0 -i 0 -k MAC 
- -t 1.158000000 -s 0 -d -1 -p AODV -e 100 -c 2 -a 0 -i 0 -k MAC
h -t 1.158000000 -s 0 -d -1 -p AODV -e 100 -c 2 -a 0 -i 0 -k MAC
r -t 1.158400594 -s 1 -d -1 -p AODV -e 48 -c 2 -a 0 -i 0 -k MAC
r -t 1.158400948 -s 2 -d -1 -p AODV -e 48 -c 2 -a 0 -i 0 -k MAC
r -t 1.158401384 -s 6 -d -1 -p AODV -e 48 -c 2 -a 0 -i 0 -k MAC
r -t 1.158401741 -s 4 -d -1 -p AODV -e 48 -c 2 -a 0 -i 0 -k MAC
r -t 1.158425594 -s 1 -d -1 -p AODV -e 48 -c 2 -a 0 -i 0 -k RTR
+ -t 1.182000000 -s 4 -d -1 -p AODV -e 100 -c 2 -a 0 -i 0 -k MAC 
- -t 1.182000000 -s 4 -d -1 -p AODV -e 100 -c 2 -a 0 -i 0 -k MAC
h -t 1.182000000 -s 4 -d -1 -p AODV -e 100 -c 2 -a 0 -i 0 -k MAC
r -t 1.182400695 -s 3 -d -1 -p AODV -e 48 -c 2 -a 0 -i 0 -k MAC
r -t 1.182400814 -s 5 -d -1 -p AODV -e 48 -c 2 -a 0 -i 0 -k MAC
r -t 1.182400822 -s 6 -d -1 -p AODV -e 48 -c 2 -a 0 -i 0 -k MAC
r -t 1.182400838 -s 2 -d -1 -p AODV -e 48 -c 2 -a 0 -i 0 -k MAC
r -t 1.182401237 -s 1 -d -1 -p AODV -e 48 -c 2 -a 0 -i 0 -k MAC
r -t 1.182401741 -s 0 -d -1 -p AODV -e 48 -c 2 -a 0 -i 0 -k MAC
r -t 1.182425695 -s 3 -d -1 -p AODV -e 48 -c 2 -a 0 -i 0 -k RTR
+ -t 1.182425695 -s 3 -d 4 -p AODV -e 44 -c 2 -a 0 -i 0 -k RTR 
- -t 1.182425695 -s 3 -d 4 -p AODV -e 44 -c 2 -a 0 -i 0 -k RTR
h -t 1.182425695 -s 3 -d 4 -p AODV -e 44 -c 2 -a 0 -i 0 -k RTR
r -t 1.182425814 -s 5 -d -1 -p AODV -e 48 -c 2 -a 0 -i 0 -k RTR
r -t 1.182425822 -s 6 -d -1 -p AODV -e 48 -c 2 -a 0 -i 0 -k RTR
+ -t 1.188814466 -s 5 -d -1 -p AODV -e 48 -c 2 -a 0 -i 0 -k RTR 
- -t 1.188814466 -s 5 -d -1 -p AODV -e 48 -c 2 -a 0 -i 0 -k RTR
h -t 1.188814466 -s 5 -d -1 -p AODV -e 48 -c 2 -a 0 -i 0 -k RTR
+ -t 1.194000000 -s 6 -d -1 -p AODV -e 100 -c 2 -a 0 -i 0 -k MAC 
- -t 1.194000000 -s 6 -d -1 -p AODV -e 100 -c 2 -a 0 -i 0 -k MAC
h -t 1.194000000 -s 6 -d -1 -p AODV -e 100 -c 2 -a 0 -i 0 -k MAC
r -t 1.194400790 -s 1 -d -1 -p AODV -e 48 -c 2 -a 0 -i 0 -k MAC
r -t 1.194400822 -s 4 -d -1 -p AODV -e 48 -c 2 -a 0 -i 0 -k MAC
r -t 1.194400892 -s 2 -d -1 -p AODV -e 48 -c 2 -a 0 -i 0 -k MAC
r -t 1.194401384 -s 0 -d -1 -p AODV -e 48 -c 2 -a 0 -i 0 -k MAC
r -t 1.194401426 -s 3 -d -1 -p AODV -e 48 -c 2 -a 0 -i 0 -k MAC
r -t 1.194401583 -s 5 -d -1 -p AODV -e 48 -c 2 -a 0 -i 0 -k MAC
r -t 1.194425790 -s 1 -d -1 -p AODV -e 48 -c 2 -a 0 -i 0 -k RTR
r -t 1.194425822 -s 4 -d -1 -p AODV -e 48 -c 2 -a 0 -i 0 -k RTR
+ -t 1.197516613 -s 4 -d -1 -p AODV -e 48 -c 2 -a 0 -i 0 -k RTR 
- -t 1.197516613 -s 4 -d -1 -p AODV -e 48 -c 2 -a 0 -i 0 -k RTR
h -t 1.197516613 -s 4 -d -1 -p AODV -e 48 -c 2 -a 0 -i 0 -k RTR
+ -t 1.224000000 -s 3 -d -1 -p ARP -e 80 -c 2 -a 0 -i 0 -k MAC 
- -t 1.224000000 -s 3 -d -1 -p ARP -e 80 -c 2 -a 0 -i 0 -k MAC
h -t 1.224000000 -s 3 -d -1 -p ARP -e 80 -c 2 -a 0 -i 0 -k MAC
r -t 1.224320695 -s 4 -d -1 -p ARP -e 28 -c 2 -a 0 -i 0 -k MAC
r -t 1.224320868 -s 5 -d -1 -p ARP -e 28 -c 2 -a 0 -i 0 -k MAC
r -t 1.224320939 -s 2 -d -1 -p ARP -e 28 -c 2 -a 0 -i 0 -k MAC
r -t 1.224321426 -s 6 -d -1 -p ARP -e 28 -c 2 -a 0 -i 0 -k MAC
r -t 1.224321529 -s 1 -d -1 -p ARP -e 28 -c 2 -a 0 -i 0 -k MAC
+ -t 1.230000000 -s 4 -d -1 -p AODV -e 100 -c 2 -a 0 -i 0 -k MAC 
- -t 1.230000000 -s 4 -d -1 -p AODV -e 100 -c 2 -a 0 -i 0 -k MAC
h -t 1.230000000 -s 4 -d -1 -p AODV -e 100 -c 2 -a 0 -i 0 -k MAC
r -t 1.230400695 -s 3 -d -1 -p AODV -e 48 -c 2 -a 0 -i 0 -k MAC
r -t 1.230400814 -s 5 -d -1 -p AODV -e 48 -c 2 -a 0 -i 0 -k MAC
r -t 1.230400822 -s 6 -d -1 -p AODV -e 48 -c 2 -a 0 -i 0 -k MAC
r -t 1.230400838 -s 2 -d -1 -p AODV -e 48 -c 2 -a 0 -i 0 -k MAC
r -t 1.230401237 -s 1 -d -1 -p AODV -e 48 -c 2 -a 0 -i 0 -k MAC
r -t 1.230401741 -s 0 -d -1 -p AODV -e 48 -c 2 -a 0 -i 0 -k MAC
r -t 1.230425695 -s 3 -d -1 -p AODV -e 48 -c 2 -a 0 -i 0 -k RTR
r -t 1.230425814 -s 5 -d -1 -p AODV -e 48 -c 2 -a 0 -i 0 -k RTR
+ -t 1.230425814 -s 5 -d 4 -p AODV -e 44 -c 2 -a 0 -i 0 -k RTR 
- -t 1.230425814 -s 5 -d 4 -p AODV -e 44 -c 2 -a 0 -i 0 -k RTR
h -t 1.230425814 -s 5 -d 4 -p AODV -e 44 -c 2 -a 0 -i 0 -k RTR
r -t 1.230425822 -s 6 -d -1 -p AODV -e 48 -c 2 -a 0 -i 0 -k RTR
+ -t 1.236000000 -s 5 -d -1 -p AODV -e 100 -c 2 -a 0 -i 0 -k MAC 
- -t 1.236000000 -s 5 -d -1 -p AODV -e 100 -c 2 -a 0 -i 0 -k MAC
h -t 1.236000000 -s 5 -d -1 -p AODV -e 100 -c 2 -a 0 -i 0 -k MAC
r -t 1.236400814 -s 4 -d -1 -p AODV -e 48 -c 2 -a 0 -i 0 -k MAC
r -t 1.236400868 -s 3 -d -1 -p AODV -e 48 -c 2 -a 0 -i 0 -k MAC
r -t 1.236401574 -s 2 -d -1 -p AODV -e 48 -c 2 -a 0 -i 0 -k MAC
r -t 1.236401583 -s 6 -d -1 -p AODV -e 48 -c 2 -a 0 -i 0 -k MAC
r -t 1.236425814 -s 4 -d -1 -p AODV -e 48 -c 2 -a 0 -i 0 -k RTR
+ -t 1.238788930 -s 3 -d -1 -p AODV -e 48 -c 2 -a 0 -i 0 -k RTR 
- -t 1.238788930 -s 3 -d -1 -p AODV -e 48 -c 2 -a 0 -i 0 -k RTR
h -t 1.238788930 -s 3 -d -1 -p AODV -e 48 -c 2 -a 0 -i 0 -k RTR
+ -t 1.272000000 -s 3 -d -1 -p AODV -e 100 -c 2 -a 0 -i 0 -k MAC 
- -t 1.272000000 -s 3 -d -1 -p AODV -e 100 -c 2 -a 0 -i 0 -k MAC
h -t 1.272000000 -s 3 -d -1 -p AODV -e 100 -c 2 -a 0 -i 0 -k MAC
r -t 1.272400695 -s 4 -d -1 -p AODV -e 48 -c 2 -a 0 -i 0 -k MAC
r -t 1.272400868 -s 5 -d -1 -p AODV -e 48 -c 2 -a 0 -i 0 -k MAC
r -t 1.272400939 -s 2 -d -1 -p AODV -e 48 -c 2 -a 0 -i 0 -k MAC
r -t 1.272401426 -s 6 -d -1 -p AODV -e 48 -c 2 -a 0 -i 0 -k MAC
r -t 1.272401529 -s 1 -d -1 -p AODV -e 48 -c 2 -a 0 -i 0 -k MAC
r -t 1.272425695 -s 4 -d -1 -p AODV -e 48 -c 2 -a 0 -i 0 -k RTR
+ -t 1.278000000 -s 4 -d -1 -p ARP -e 80 -c 2 -a 0 -i 0 -k MAC 
- -t 1.278000000 -s 4 -d -1 -p ARP -e 80 -c 2 -a 0 -i 0 -k MAC
h -t 1.278000000 -s 4 -d -1 -p ARP -e 80 -c 2 -a 0 -i 0 -k MAC
r -t 1.278320695 -s 3 -d -1 -p ARP -e 28 -c 2 -a 0 -i 0 -k MAC
+ -t 1.284000000 -s 5 -d -1 -p ARP -e 80 -c 2 -a 0 -i 0 -k MAC 
- -t 1.284000000 -s 5 -d -1 -p ARP -e 80 -c 2 -a 0 -i 0 -k MAC
h -t 1.284000000 -s 5 -d -1 -p ARP -e 80 -c 2 -a 0 -i 0 -k MAC
r -t 1.284320814 -s 4 -d -1 -p ARP -e 28 -c 2 -a 0 -i 0 -k MAC
r -t 1.284320868 -s 3 -d -1 -p ARP -e 28 -c 2 -a 0 -i 0 -k MAC
r -t 1.284321574 -s 2 -d -1 -p ARP -e 28 -c 2 -a 0 -i 0 -k MAC
r -t 1.284321583 -s 6 -d -1 -p ARP -e 28 -c 2 -a 0 -i 0 -k MAC
+ -t 1.320000000 -s 3 -d 4 -p AODV -e 96 -c 2 -a 0 -i 0 -k MAC 
- -t 1.320000000 -s 3 -d 4 -p AODV -e 96 -c 2 -a 0 -i 0 -k MAC
h -t 1.320000000 -s 3 -d 4 -p AODV -e 96 -c 2 -a 0 -i 0 -k MAC
r -t 1.320384695 -s 4 -d 4 -p AODV -e 44 -c 2 -a 0 -i 0 -k MAC
+ -t 1.320409695 -s 4 -d 6 -p AODV -e 44 -c 2 -a 0 -i 0 -k RTR 
- -t 1.320409695 -s 4 -d 6 -p AODV -e 44 -c 2 -a 0 -i 0 -k RTR
h -t 1.320409695 -s 4 -d 6 -p AODV -e 44 -c 2 -a 0 -i 0 -k RTR
+ -t 1.326000000 -s 4 -d -1 -p ARP -e 80 -c 2 -a 0 -i 0 -k MAC 
- -t 1.326000000 -s 4 -d -1 -p ARP -e 80 -c 2 -a 0 -i 0 -k MAC
h -t 1.326000000 -s 4 -d -1 -p ARP -e 80 -c 2 -a 0 -i 0 -k MAC
r -t 1.326320814 -s 5 -d -1 -p ARP -e 28 -c 2 -a 0 -i 0 -k MAC
+ -t 1.374000000 -s 4 -d -1 -p ARP -e 80 -c 2 -a 0 -i 0 -k MAC 
- -t 1.374000000 -s 4 -d -1 -p ARP -e 80 -c 2 -a 0 -i 0 -k MAC
h -t 1.374000000 -s 4 -d -1 -p ARP -e 80 -c 2 -a 0 -i 0 -k MAC
r -t 1.374320695 -s 3 -d -1 -p ARP -e 28 -c 2 -a 0 -i 0 -k MAC
r -t 1.374320814 -s 5 -d -1 -p ARP -e 28 -c 2 -a 0 -i 0 -k MAC
r -t 1.374320822 -s 6 -d -1 -p ARP -e 28 -c 2 -a 0 -i 0 -k MAC
r -t 1.374320838 -s 2 -d -1 -p ARP -e 28 -c 2 -a 0 -i 0 -k MAC
r -t 1.374321237 -s 1 -d -1 -p ARP -e 28 -c 2 -a 0 -i 0 -k MAC
r -t 1.374321741 -s 0 -d -1 -p ARP -e 28 -c 2 -a 0 -i 0 -k MAC
+ -t 1.380000000 -s 5 -d 4 -p AODV -e 96 -c 2 -a 0 -i 0 -k MAC 
- -t 1.380000000 -s 5 -d 4 -p AODV -e 96 -c 2 -a 0 -i 0 -k MAC
h -t 1.380000000 -s 5 -d 4 -p AODV -e 96 -c 2 -a 0 -i 0 -k MAC
r -t 1.380384814 -s 4 -d 4 -p AODV -e 44 -c 2 -a 0 -i 0 -k MAC
+ -t 1.380409814 -s 4 -d 6 -p AODV -e 44 -c 2 -a 0 -i 0 -k RTR 
- -t 1.380409814 -s 4 -d 6 -p AODV -e 44 -c 2 -a 0 -i 0 -k RTR
h -t 1.380409814 -s 4 -d 6 -p AODV -e 44 -c 2 -a 0 -i 0 -k RTR
d -t 1.380409814 -s 4 -d 6 -p AODV -e 44 -c 2 -a 0 -i 0 -k IFQ
+ -t 1.422000000 -s 4 -d -1 -p ARP -e 80 -c 2 -a 0 -i 0 -k MAC 
- -t 1.422000000 -s 4 -d -1 -p ARP -e 80 -c 2 -a 0 -i 0 -k MAC
h -t 1.422000000 -s 4 -d -1 -p ARP -e 80 -c 2 -a 0 -i 0 -k MAC
r -t 1.422320695 -s 3 -d -1 -p ARP -e 28 -c 2 -a 0 -i 0 -k MAC
r -t 1.422320814 -s 5 -d -1 -p ARP -e 28 -c 2 -a 0 -i 0 -k MAC
r -t 1.422320822 -s 6 -d -1 -p ARP -e 28 -c 2 -a 0 -i 0 -k MAC
r -t 1.422320838 -s 2 -d -1 -p ARP -e 28 -c 2 -a 0 -i 0 -k MAC
r -t 1.422321237 -s 1 -d -1 -p ARP -e 28 -c 2 -a 0 -i 0 -k MAC
r -t 1.422321741 -s 0 -d -1 -p ARP -e 28 -c 2 -a 0 -i 0 -k MAC
+ -t 1.434000000 -s 6 -d -1 -p ARP -e 80 -c 2 -a 0 -i 0 -k MAC 
- -t 1.434000000 -s 6 -d -1 -p ARP -e 80 -c 2 -a 0 -i 0 -k MAC
h -t 1.434000000 -s 6 -d -1 -p ARP -e 80 -c 2 -a 0 -i 0 -k MAC
r -t 1.434320822 -s 4 -d -1 -p ARP -e 28 -c 2 -a 0 -i 0 -k MAC
+ -t 1.470000000 -s 4 -d 6 -p AODV -e 96 -c 2 -a 0 -i 0 -k MAC 
- -t 1.470000000 -s 4 -d 6 -p AODV -e 96 -c 2 -a 0 -i 0 -k MAC
h -t 1.470000000 -s 4 -d 6 -p AODV -e 96 -c 2 -a 0 -i 0 -k MAC
r -t 1.470384822 -s 6 -d 6 -p AODV -e 44 -c 2 -a 0 -i 0 -k MAC
+ -t 1.470409822 -s 6 -d 1 -p AODV -e 44 -c 2 -a 0 -i 0 -k RTR 
- -t 1.470409822 -s 6 -d 1 -p AODV -e 44 -c 2 -a 0 -i 0 -k RTR
h -t 1.470409822 -s 6 -d 1 -p AODV -e 44 -c 2 -a 0 -i 0 -k RTR
+ -t 1.482000000 -s 6 -d -1 -p ARP -e 80 -c 2 -a 0 -i 0 -k MAC 
- -t 1.482000000 -s 6 -d -1 -p ARP -e 80 -c 2 -a 0 -i 0 -k MAC
h -t 1.482000000 -s 6 -d -1 -p ARP -e 80 -c 2 -a 0 -i 0 -k MAC
r -t 1.482320822 -s 4 -d -1 -p ARP -e 28 -c 2 -a 0 -i 0 -k MAC
+ -t 1.530000000 -s 6 -d -1 -p ARP -e 80 -c 2 -a 0 -i 0 -k MAC 
- -t 1.530000000 -s 6 -d -1 -p ARP -e 80 -c 2 -a 0 -i 0 -k MAC
h -t 1.530000000 -s 6 -d -1 -p ARP -e 80 -c 2 -a 0 -i 0 -k MAC
r -t 1.530320790 -s 1 -d -1 -p ARP -e 28 -c 2 -a 0 -i 0 -k MAC
r -t 1.530320822 -s 4 -d -1 -p ARP -e 28 -c 2 -a 0 -i 0 -k MAC
r -t 1.530320892 -s 2 -d -1 -p ARP -e 28 -c 2 -a 0 -i 0 -k MAC
r -t 1.530321384 -s 0 -d -1 -p ARP -e 28 -c 2 -a 0 -i 0 -k MAC
r -t 1.530321426 -s 3 -d -1 -p ARP -e 28 -c 2 -a 0 -i 0 -k MAC
r -t 1.530321583 -s 5 -d -1 -p ARP -e 28 -c 2 -a 0 -i 0 -k MAC
+ -t 1.548000000 -s 1 -d -1 -p ARP -e 80 -c 2 -a 0 -i 0 -k MAC 
- -t 1.548000000 -s 1 -d -1 -p ARP -e 80 -c 2 -a 0 -i 0 -k MAC
h -t 1.548000000 -s 1 -d -1 -p ARP -e 80 -c 2 -a 0 -i 0 -k MAC
r -t 1.548320790 -s 6 -d -1 -p ARP -e 28 -c 2 -a 0 -i 0 -k MAC
+ -t 1.626000000 -s 6 -d 1 -p AODV -e 96 -c 2 -a 0 -i 0 -k MAC 
- -t 1.626000000 -s 6 -d 1 -p AODV -e 96 -c 2 -a 0 -i 0 -k MAC
h -t 1.626000000 -s 6 -d 1 -p AODV -e 96 -c 2 -a 0 -i 0 -k MAC
r -t 1.626384790 -s 1 -d 1 -p AODV -e 44 -c 2 -a 0 -i 0 -k MAC
+ -t 1.626409790 -s 1 -d 2 -p AODV -e 44 -c 2 -a 0 -i 0 -k RTR 
- -t 1.626409790 -s 1 -d 2 -p AODV -e 44 -c 2 -a 0 -i 0 -k RTR
h -t 1.626409790 -s 1 -d 2 -p AODV -e 44 -c 2 -a 0 -i 0 -k RTR
+ -t 1.644000000 -s 1 -d -1 -p ARP -e 80 -c 2 -a 0 -i 0 -k MAC 
- -t 1.644000000 -s 1 -d -1 -p ARP -e 80 -c 2 -a 0 -i 0 -k MAC
h -t 1.644000000 -s 1 -d -1 -p ARP -e 80 -c 2 -a 0 -i 0 -k MAC
r -t 1.644320594 -s 0 -d -1 -p ARP -e 28 -c 2 -a 0 -i 0 -k MAC
r -t 1.644320607 -s 2 -d -1 -p ARP -e 28 -c 2 -a 0 -i 0 -k MAC
r -t 1.644320790 -s 6 -d -1 -p ARP -e 28 -c 2 -a 0 -i 0 -k MAC
r -t 1.644321237 -s 4 -d -1 -p ARP -e 28 -c 2 -a 0 -i 0 -k MAC
r -t 1.644321529 -s 3 -d -1 -p ARP -e 28 -c 2 -a 0 -i 0 -k MAC
+ -t 1.698000000 -s 2 -d -1 -p ARP -e 80 -c 2 -a 0 -i 0 -k MAC 
- -t 1.698000000 -s 2 -d -1 -p ARP -e 80 -c 2 -a 0 -i 0 -k MAC
h -t 1.698000000 -s 2 -d -1 -p ARP -e 80 -c 2 -a 0 -i 0 -k MAC
r -t 1.698320607 -s 1 -d -1 -p ARP -e 28 -c 2 -a 0 -i 0 -k MAC
+ -t 1.740000000 -s 1 -d 2 -p AODV -e 96 -c 2 -a 0 -i 0 -k MAC 
- -t 1.740000000 -s 1 -d 2 -p AODV -e 96 -c 2 -a 0 -i 0 -k MAC
h -t 1.740000000 -s 1 -d 2 -p AODV -e 96 -c 2 -a 0 -i 0 -k MAC
r -t 1.740384607 -s 2 -d 2 -p AODV -e 44 -c 2 -a 0 -i 0 -k MAC
+ -t 1.740409607 -s 2 -d 1 -p tcp -e 40 -c 2 -a 0 -i 1 -k RTR 
- -t 1.740409607 -s 2 -d 1 -p tcp -e 40 -c 2 -a 0 -i 1 -k RTR
h -t 1.740409607 -s 2 -d 1 -p tcp -e 40 -c 2 -a 0 -i 1 -k RTR
+ -t 1.794000000 -s 2 -d 1 -p tcp -e 92 -c 2 -a 0 -i 1 -k MAC 
- -t 1.794000000 -s 2 -d 1 -p tcp -e 92 -c 2 -a 0 -i 1 -k MAC
h -t 1.794000000 -s 2 -d 1 -p tcp -e 92 -c 2 -a 0 -i 1 -k MAC
r -t 1.794368607 -s 1 -d 1 -p tcp -e 40 -c 2 -a 0 -i 1 -k MAC
+ -t 1.794393607 -s 1 -d 6 -p tcp -e 40 -c 2 -a 0 -i 1 -k RTR 
- -t 1.794393607 -s 1 -d 6 -p tcp -e 40 -c 2 -a 0 -i 1 -k RTR
h -t 1.794393607 -s 1 -d 6 -p tcp -e 40 -c 2 -a 0 -i 1 -k RTR
+ -t 1.836000000 -s 1 -d 6 -p tcp -e 92 -c 2 -a 0 -i 1 -k MAC 
- -t 1.836000000 -s 1 -d 6 -p tcp -e 92 -c 2 -a 0 -i 1 -k MAC
h -t 1.836000000 -s 1 -d 6 -p tcp -e 92 -c 2 -a 0 -i 1 -k MAC
r -t 1.836368790 -s 6 -d 6 -p tcp -e 40 -c 2 -a 0 -i 1 -k MAC
+ -t 1.836393790 -s 6 -d 4 -p tcp -e 40 -c 2 -a 0 -i 1 -k RTR 
- -t 1.836393790 -s 6 -d 4 -p tcp -e 40 -c 2 -a 0 -i 1 -k RTR
h -t 1.836393790 -s 6 -d 4 -p tcp -e 40 -c 2 -a 0 -i 1 -k RTR
+ -t 1.914000000 -s 6 -d 4 -p tcp -e 92 -c 2 -a 0 -i 1 -k MAC 
- -t 1.914000000 -s 6 -d 4 -p tcp -e 92 -c 2 -a 0 -i 1 -k MAC
h -t 1.914000000 -s 6 -d 4 -p tcp -e 92 -c 2 -a 0 -i 1 -k MAC
r -t 1.914368822 -s 4 -d 4 -p tcp -e 40 -c 2 -a 0 -i 1 -k MAC
+ -t 1.914393822 -s 4 -d 5 -p tcp -e 40 -c 2 -a 0 -i 1 -k RTR 
- -t 1.914393822 -s 4 -d 5 -p tcp -e 40 -c 2 -a 0 -i 1 -k RTR
h -t 1.914393822 -s 4 -d 5 -p tcp -e 40 -c 2 -a 0 -i 1 -k RTR
+ -t 1.950000000 -s 4 -d 5 -p tcp -e 92 -c 2 -a 0 -i 1 -k MAC 
- -t 1.950000000 -s 4 -d 5 -p tcp -e 92 -c 2 -a 0 -i 1 -k MAC
h -t 1.950000000 -s 4 -d 5 -p tcp -e 92 -c 2 -a 0 -i 1 -k MAC
r -t 1.950368814 -s 5 -d 5 -p tcp -e 40 -c 2 -a 0 -i 1 -k MAC
r -t 1.950393814 -s 5 -d 5 -p tcp -e 40 -c 2 -a 0 -i 1 -k AGT
+ -t 1.950393814 -s 5 -d -1 -p ack -e 40 -c 2 -a 0 -i 2 -k AGT 
- -t 1.950393814 -s 5 -d -1 -p ack -e 40 -c 2 -a 0 -i 2 -k AGT
h -t 1.950393814 -s 5 -d -1 -p ack -e 40 -c 2 -a 0 -i 2 -k AGT
+ -t 1.950393814 -s 5 -d 4 -p ack -e 40 -c 2 -a 0 -i 2 -k RTR 
- -t 1.950393814 -s 5 -d 4 -p ack -e 40 -c 2 -a 0 -i 2 -k RTR
h -t 1.950393814 -s 5 -d 4 -p ack -e 40 -c 2 -a 0 -i 2 -k RTR
+ -t 2.004000000 -s 5 -d 4 -p ack -e 92 -c 2 -a 0 -i 2 -k MAC 
- -t 2.004000000 -s 5 -d 4 -p ack -e 92 -c 2 -a 0 -i 2 -k MAC
h -t 2.004000000 -s 5 -d 4 -p ack -e 92 -c 2 -a 0 -i 2 -k MAC
r -t 2.004368814 -s 4 -d 4 -p ack -e 40 -c 2 -a 0 -i 2 -k MAC
+ -t 2.004393814 -s 4 -d 6 -p ack -e 40 -c 2 -a 0 -i 2 -k RTR 
- -t 2.004393814 -s 4 -d 6 -p ack -e 40 -c 2 -a 0 -i 2 -k RTR
h -t 2.004393814 -s 4 -d 6 -p ack -e 40 -c 2 -a 0 -i 2 -k RTR
+ -t 2.046000000 -s 4 -d 6 -p ack -e 92 -c 2 -a 0 -i 2 -k MAC 
- -t 2.046000000 -s 4 -d 6 -p ack -e 92 -c 2 -a 0 -i 2 -k MAC
h -t 2.046000000 -s 4 -d 6 -p ack -e 92 -c 2 -a 0 -i 2 -k MAC
r -t 2.046368822 -s 6 -d 6 -p ack -e 40 -c 2 -a 0 -i 2 -k MAC
+ -t 2.046393822 -s 6 -d 1 -p ack -e 40 -c 2 -a 0 -i 2 -k RTR 
- -t 2.046393822 -s 6 -d 1 -p ack -e 40 -c 2 -a 0 -i 2 -k RTR
h -t 2.046393822 -s 6 -d 1 -p ack -e 40 -c 2 -a 0 -i 2 -k RTR
+ -t 2.106000000 -s 6 -d 1 -p ack -e 92 -c 2 -a 0 -i 2 -k MAC 
- -t 2.106000000 -s 6 -d 1 -p ack -e 92 -c 2 -a 0 -i 2 -k MAC
h -t 2.106000000 -s 6 -d 1 -p ack -e 92 -c 2 -a 0 -i 2 -k MAC
r -t 2.106368790 -s 1 -d 1 -p ack -e 40 -c 2 -a 0 -i 2 -k MAC
+ -t 2.106393790 -s 1 -d 2 -p ack -e 40 -c 2 -a 0 -i 2 -k RTR 
- -t 2.106393790 -s 1 -d 2 -p ack -e 40 -c 2 -a 0 -i 2 -k RTR
h -t 2.106393790 -s 1 -d 2 -p ack -e 40 -c 2 -a 0 -i 2 -k RTR
+ -t 2.124000000 -s 1 -d 2 -p ack -e 92 -c 2 -a 0 -i 2 -k MAC 
- -t 2.124000000 -s 1 -d 2 -p ack -e 92 -c 2 -a 0 -i 2 -k MAC
h -t 2.124000000 -s 1 -d 2 -p ack -e 92 -c 2 -a 0 -i 2 -k MAC
r -t 2.124368607 -s 2 -d 2 -p ack -e 40 -c 2 -a 0 -i 2 -k MAC
r -t 2.124393607 -s 2 -d 2 -p ack -e 40 -c 2 -a 0 -i 2 -k AGT
n -t 3.000000 -s 0 -x 333.000000 -y 171.000000 -U 17.455163 -V 9.763057 -T 43.941154
+ -t 3.000000000 -s 0 -d -1 -p AODV -e 48 -c 2 -a 0 -i 0 -k RTR 
- -t 3.000000000 -s 0 -d -1 -p AODV -e 48 -c 2 -a 0 -i 0 -k RTR
h -t 3.000000000 -s 0 -d -1 -p AODV -e 48 -c 2 -a 0 -i 0 -k RTR
+ -t 3.030000000 -s 0 -d -1 -p AODV -e 100 -c 2 -a 0 -i 0 -k MAC 
- -t 3.030000000 -s 0 -d -1 -p AODV -e 100 -c 2 -a 0 -i 0 -k MAC
h -t 3.030000000 -s 0 -d -1 -p AODV -e 100 -c 2 -a 0 -i 0 -k MAC
r -t 3.030400592 -s 1 -d -1 -p AODV -e 48 -c 2 -a 0 -i 0 -k MAC
r -t 3.030400946 -s 2 -d -1 -p AODV -e 48 -c 2 -a 0 -i 0 -k MAC
r -t 3.030401382 -s 6 -d -1 -p AODV -e 48 -c 2 -a 0 -i 0 -k MAC
r -t 3.030401739 -s 4 -d -1 -p AODV -e 48 -c 2 -a 0 -i 0 -k MAC
r -t 3.030425592 -s 1 -d -1 -p AODV -e 48 -c 2 -a 0 -i 0 -k RTR
+ -t 3.032067046 -s 1 -d -1 -p AODV -e 48 -c 2 -a 0 -i 0 -k RTR 
- -t 3.032067046 -s 1 -d -1 -p AODV -e 48 -c 2 -a 0 -i 0 -k RTR
h -t 3.032067046 -s 1 -d -1 -p AODV -e 48 -c 2 -a 0 -i 0 -k RTR
+ -t 3.084000000 -s 1 -d -1 -p AODV -e 100 -c 2 -a 0 -i 0 -k MAC 
- -t 3.084000000 -s 1 -d -1 -p AODV -e 100 -c 2 -a 0 -i 0 -k MAC
h -t 3.084000000 -s 1 -d -1 -p AODV -e 100 -c 2 -a 0 -i 0 -k MAC
r -t 3.084400589 -s 0 -d -1 -p AODV -e 48 -c 2 -a 0 -i 0 -k MAC
r -t 3.084400607 -s 2 -d -1 -p AODV -e 48 -c 2 -a 0 -i 0 -k MAC
r -t 3.084400790 -s 6 -d -1 -p AODV -e 48 -c 2 -a 0 -i 0 -k MAC
r -t 3.084401237 -s 4 -d -1 -p AODV -e 48 -c 2 -a 0 -i 0 -k MAC
r -t 3.084401529 -s 3 -d -1 -p AODV -e 48 -c 2 -a 0 -i 0 -k MAC
r -t 3.084425589 -s 0 -d -1 -p AODV -e 48 -c 2 -a 0 -i 0 -k RTR
r -t 3.084425607 -s 2 -d -1 -p AODV -e 48 -c 2 -a 0 -i 0 -k RTR
r -t 3.084425790 -s 6 -d -1 -p AODV -e 48 -c 2 -a 0 -i 0 -k RTR
+ -t 3.084853553 -s 2 -d -1 -p AODV -e 48 -c 2 -a 0 -i 0 -k RTR 
- -t 3.084853553 -s 2 -d -1 -p AODV -e 48 -c 2 -a 0 -i 0 -k RTR
h -t 3.084853553 -s 2 -d -1 -p AODV -e 48 -c 2 -a 0 -i 0 -k RTR
+ -t 3.090826467 -s 6 -d -1 -p AODV -e 48 -c 2 -a 0 -i 0 -k RTR 
- -t 3.090826467 -s 6 -d -1 -p AODV -e 48 -c 2 -a 0 -i 0 -k RTR
h -t 3.090826467 -s 6 -d -1 -p AODV -e 48 -c 2 -a 0 -i 0 -k RTR
+ -t 3.138000000 -s 2 -d -1 -p AODV -e 100 -c 2 -a 0 -i 0 -k MAC 
- -t 3.138000000 -s 2 -d -1 -p AODV -e 100 -c 2 -a 0 -i 0 -k MAC
h -t 3.138000000 -s 2 -d -1 -p AODV -e 100 -c 2 -a 0 -i 0 -k MAC
r -t 3.138400607 -s 1 -d -1 -p AODV -e 48 -c 2 -a 0 -i 0 -k MAC
r -t 3.138400838 -s 4 -d -1 -p AODV -e 48 -c 2 -a 0 -i 0 -k MAC
r -t 3.138400892 -s 6 -d -1 -p AODV -e 48 -c 2 -a 0 -i 0 -k MAC
r -t 3.138400939 -s 0 -d -1 -p AODV -e 48 -c 2 -a 0 -i 0 -k MAC
r -t 3.138400939 -s 3 -d -1 -p AODV -e 48 -c 2 -a 0 -i 0 -k MAC
r -t 3.138401574 -s 5 -d -1 -p AODV -e 48 -c 2 -a 0 -i 0 -k MAC
r -t 3.138425607 -s 1 -d -1 -p AODV -e 48 -c 2 -a 0 -i 0 -k RTR
+ -t 3.162000000 -s 6 -d -1 -p AODV -e 100 -c 2 -a 0 -i 0 -k MAC 
- -t 3.162000000 -s 6 -d -1 -p AODV -e 100 -c 2 -a 0 -i 0 -k MAC
h -t 3.162000000 -s 6 -d -1 -p AODV -e 100 -c 2 -a 0 -i 0 -k MAC
r -t 3.162400790 -s 1 -d -1 -p AODV -e 48 -c 2 -a 0 -i 0 -k MAC
r -t 3.162400822 -s 4 -d -1 -p AODV -e 48 -c 2 -a 0 -i 0 -k MAC
r -t 3.162400892 -s 2 -d -1 -p AODV -e 48 -c 2 -a 0 -i 0 -k MAC
r -t 3.162401375 -s 0 -d -1 -p AODV -e 48 -c 2 -a 0 -i 0 -k MAC
r -t 3.162401426 -s 3 -d -1 -p AODV -e 48 -c 2 -a 0 -i 0 -k MAC
r -t 3.162401583 -s 5 -d -1 -p AODV -e 48 -c 2 -a 0 -i 0 -k MAC
r -t 3.162425790 -s 1 -d -1 -p AODV -e 48 -c 2 -a 0 -i 0 -k RTR
r -t 3.162425822 -s 4 -d -1 -p AODV -e 48 -c 2 -a 0 -i 0 -k RTR
+ -t 3.162425822 -s 4 -d 6 -p AODV -e 44 -c 2 -a 0 -i 0 -k RTR 
- -t 3.162425822 -s 4 -d 6 -p AODV -e 44 -c 2 -a 0 -i 0 -k RTR
h -t 3.162425822 -s 4 -d 6 -p AODV -e 44 -c 2 -a 0 -i 0 -k RTR
+ -t 3.198000000 -s 4 -d 6 -p AODV -e 96 -c 2 -a 0 -i 0 -k MAC 
- -t 3.198000000 -s 4 -d 6 -p AODV -e 96 -c 2 -a 0 -i 0 -k MAC
h -t 3.198000000 -s 4 -d 6 -p AODV -e 96 -c 2 -a 0 -i 0 -k MAC
r -t 3.198384822 -s 6 -d 6 -p AODV -e 44 -c 2 -a 0 -i 0 -k MAC
+ -t 3.198409822 -s 6 -d 1 -p AODV -e 44 -c 2 -a 0 -i 0 -k RTR 
- -t 3.198409822 -s 6 -d 1 -p AODV -e 44 -c 2 -a 0 -i 0 -k RTR
h -t 3.198409822 -s 6 -d 1 -p AODV -e 44 -c 2 -a 0 -i 0 -k RTR
+ -t 3.258000000 -s 6 -d 1 -p AODV -e 96 -c 2 -a 0 -i 0 -k MAC 
- -t 3.258000000 -s 6 -d 1 -p AODV -e 96 -c 2 -a 0 -i 0 -k MAC
h -t 3.258000000 -s 6 -d 1 -p AODV -e 96 -c 2 -a 0 -i 0 -k MAC
r -t 3.258384790 -s 1 -d 1 -p AODV -e 44 -c 2 -a 0 -i 0 -k MAC
+ -t 3.258409790 -s 1 -d 0 -p AODV -e 44 -c 2 -a 0 -i 0 -k RTR 
- -t 3.258409790 -s 1 -d 0 -p AODV -e 44 -c 2 -a 0 -i 0 -k RTR
h -t 3.258409790 -s 1 -d 0 -p AODV -e 44 -c 2 -a 0 -i 0 -k RTR
+ -t 3.276000000 -s 1 -d -1 -p ARP -e 80 -c 2 -a 0 -i 0 -k MAC 
- -t 3.276000000 -s 1 -d -1 -p ARP -e 80 -c 2 -a 0 -i 0 -k MAC
h -t 3.276000000 -s 1 -d -1 -p ARP -e 80 -c 2 -a 0 -i 0 -k MAC
r -t 3.276320577 -s 0 -d -1 -p ARP -e 28 -c 2 -a 0 -i 0 -k MAC
r -t 3.276320607 -s 2 -d -1 -p ARP -e 28 -c 2 -a 0 -i 0 -k MAC
r -t 3.276320790 -s 6 -d -1 -p ARP -e 28 -c 2 -a 0 -i 0 -k MAC
r -t 3.276321237 -s 4 -d -1 -p ARP -e 28 -c 2 -a 0 -i 0 -k MAC
r -t 3.276321529 -s 3 -d -1 -p ARP -e 28 -c 2 -a 0 -i 0 -k MAC
+ -t 3.318000000 -s 0 -d -1 -p ARP -e 80 -c 2 -a 0 -i 0 -k MAC 
- -t 3.318000000 -s 0 -d -1 -p ARP -e 80 -c 2 -a 0 -i 0 -k MAC
h -t 3.318000000 -s 0 -d -1 -p ARP -e 80 -c 2 -a 0 -i 0 -k MAC
r -t 3.318320575 -s 1 -d -1 -p ARP -e 28 -c 2 -a 0 -i 0 -k MAC
+ -t 3.372000000 -s 1 -d 0 -p AODV -e 96 -c 2 -a 0 -i 0 -k MAC 
- -t 3.372000000 -s 1 -d 0 -p AODV -e 96 -c 2 -a 0 -i 0 -k MAC
h -t 3.372000000 -s 1 -d 0 -p AODV -e 96 -c 2 -a 0 -i 0 -k MAC
r -t 3.372384572 -s 0 -d 0 -p AODV -e 44 -c 2 -a 0 -i 0 -k MAC
+ -t 3.372409572 -s 0 -d 1 -p tcp -e 40 -c 2 -a 0 -i 0 -k RTR 
- -t 3.372409572 -s 0 -d 1 -p tcp -e 40 -c 2 -a 0 -i 0 -k RTR
h -t 3.372409572 -s 0 -d 1 -p tcp -e 40 -c 2 -a 0 -i 0 -k RTR
+ -t 3.414000000 -s 0 -d 1 -p tcp -e 92 -c 2 -a 0 -i 0 -k MAC 
- -t 3.414000000 -s 0 -d 1 -p tcp -e 92 -c 2 -a 0 -i 0 -k MAC
h -t 3.414000000 -s 0 -d 1 -p tcp -e 92 -c 2 -a 0 -i 0 -k MAC
r -t 3.414368569 -s 1 -d 1 -p tcp -e 40 -c 2 -a 0 -i 0 -k MAC
+ -t 3.414393569 -s 1 -d 6 -p tcp -e 40 -c 2 -a 0 -i 0 -k RTR 
- -t 3.414393569 -s 1 -d 6 -p tcp -e 40 -c 2 -a 0 -i 0 -k RTR
h -t 3.414393569 -s 1 -d 6 -p tcp -e 40 -c 2 -a 0 -i 0 -k RTR
+ -t 3.468000000 -s 1 -d 6 -p tcp -e 92 -c 2 -a 0 -i 0 -k MAC 
- -t 3.468000000 -s 1 -d 6 -p tcp -e 92 -c 2 -a 0 -i 0 -k MAC
h -t 3.468000000 -s 1 -d 6 -p tcp -e 92 -c 2 -a 0 -i 0 -k MAC
r -t 3.468368790 -s 6 -d 6 -p tcp -e 40 -c 2 -a 0 -i 0 -k MAC
+ -t 3.468393790 -s 6 -d 4 -p tcp -e 40 -c 2 -a 0 -i 0 -k RTR 
- -t 3.468393790 -s 6 -d 4 -p tcp -e 40 -c 2 -a 0 -i 0 -k RTR
h -t 3.468393790 -s 6 -d 4 -p tcp -e 40 -c 2 -a 0 -i 0 -k RTR
+ -t 3.546000000 -s 6 -d 4 -p tcp -e 92 -c 2 -a 0 -i 0 -k MAC 
- -t 3.546000000 -s 6 -d 4 -p tcp -e 92 -c 2 -a 0 -i 0 -k MAC
h -t 3.546000000 -s 6 -d 4 -p tcp -e 92 -c 2 -a 0 -i 0 -k MAC
r -t 3.546368822 -s 4 -d 4 -p tcp -e 40 -c 2 -a 0 -i 0 -k MAC
+ -t 3.546393822 -s 4 -d 3 -p tcp -e 40 -c 2 -a 0 -i 0 -k RTR 
- -t 3.546393822 -s 4 -d 3 -p tcp -e 40 -c 2 -a 0 -i 0 -k RTR
h -t 3.546393822 -s 4 -d 3 -p tcp -e 40 -c 2 -a 0 -i 0 -k RTR
+ -t 3.582000000 -s 4 -d 3 -p tcp -e 92 -c 2 -a 0 -i 0 -k MAC 
- -t 3.582000000 -s 4 -d 3 -p tcp -e 92 -c 2 -a 0 -i 0 -k MAC
h -t 3.582000000 -s 4 -d 3 -p tcp -e 92 -c 2 -a 0 -i 0 -k MAC
r -t 3.582368695 -s 3 -d 3 -p tcp -e 40 -c 2 -a 0 -i 0 -k MAC
r -t 3.582393695 -s 3 -d 3 -p tcp -e 40 -c 2 -a 0 -i 0 -k AGT
+ -t 3.582393695 -s 3 -d -1 -p ack -e 40 -c 2 -a 0 -i 3 -k AGT 
- -t 3.582393695 -s 3 -d -1 -p ack -e 40 -c 2 -a 0 -i 3 -k AGT
h -t 3.582393695 -s 3 -d -1 -p ack -e 40 -c 2 -a 0 -i 3 -k AGT
+ -t 3.582393695 -s 3 -d 4 -p ack -e 40 -c 2 -a 0 -i 3 -k RTR 
- -t 3.582393695 -s 3 -d 4 -p ack -e 40 -c 2 -a 0 -i 3 -k RTR
h -t 3.582393695 -s 3 -d 4 -p ack -e 40 -c 2 -a 0 -i 3 -k RTR
+ -t 3.624000000 -s 3 -d 4 -p ack -e 92 -c 2 -a 0 -i 3 -k MAC 
- -t 3.624000000 -s 3 -d 4 -p ack -e 92 -c 2 -a 0 -i 3 -k MAC
h -t 3.624000000 -s 3 -d 4 -p ack -e 92 -c 2 -a 0 -i 3 -k MAC
r -t 3.624368695 -s 4 -d 4 -p ack -e 40 -c 2 -a 0 -i 3 -k MAC
+ -t 3.624393695 -s 4 -d 6 -p ack -e 40 -c 2 -a 0 -i 3 -k RTR 