+ 0.2 0 1 ping 1500 ------- 0 0.0 2.0 -1 0
- 0.2 0 1 ping 1500 ------- 0 0.0 2.0 -1 0
r 0.21012 0 1 ping 1500 ------- 0 0.0 2.0 -1 0
+ 0.21012 1 2 ping 1500 ------- 0 0.0 2.0 -1 0
- 0.21012 1 2 ping 1500 ------- 0 0.0 2.0 -1 0
r 0.22024 1 2 ping 1500 ------- 0 0.0 2.0 -1 0
+ 0.22024 2 1 ping 64 ------- 0 2.0 0.0 -1 1
- 0.22024 2 1 ping 64 ------- 0 2.0 0.0 -1 1
r 0.230245 2 1 ping 64 ------- 0 2.0 0.0 -1 1
+ 0.230245 1 0 ping 64 ------- 0 2.0 0.0 -1 1
- 0.230245 1 0 ping 64 ------- 0 2.0 0.0 -1 1
r 0.24025 1 0 ping 64 ------- 0 2.0 0.0 -1 1
+ 0.4 2 1 ping 64 ------- 0 2.0 0.0 -1 2
- 0.4 2 1 ping 64 ------- 0 2.0 0.0 -1 2
r 0.410005 2 1 ping 64 ------- 0 2.0 0.0 -1 2
+ 0.410005 1 0 ping 64 ------- 0 2.0 0.0 -1 2
- 0.410005 1 0 ping 64 ------- 0 2.0 0.0 -1 2
r 0.42001 1 0 ping 64 ------- 0 2.0 0.0 -1 2
+ 0.42001 0 1 ping 1500 ------- 0 0.0 2.0 -1 3
- 0.42001 0 1 ping 1500 ------- 0 0.0 2.0 -1 3
r 0.43013 0 1 ping 1500 ------- 0 0.0 2.0 -1 3
+ 0.43013 1 2 ping 1500 ------- 0 0.0 2.0 -1 3
- 0.43013 1 2 ping 1500 ------- 0 0.0 2.0 -1 3
r 0.44025 1 2 ping 1500 ------- 0 0.0 2.0 -1 3
+ 0.6 4 3 ping 1500 ------- 0 4.0 5.0 -1 4
- 0.6 4 3 ping 1500 ------- 0 4.0 5.0 -1 4
r 0.61012 4 3 ping 1500 ------- 0 4.0 5.0 -1 4
+ 0.61012 3 5 ping 1500 ------- 0 4.0 5.0 -1 4
- 0.61012 3 5 ping 1500 ------- 0 4.0 5.0 -1 4
r 0.62024 3 5 ping 1500 ------- 0 4.0 5.0 -1 4
+ 0.62024 5 3 ping 64 ------- 0 5.0 4.0 -1 5
- 0.62024 5 3 ping 64 ------- 0 5.0 4.0 -1 5
r 0.630245 5 3 ping 64 ------- 0 5.0 4.0 -1 5
+ 0.630245 3 4 ping 64 ------- 0 5.0 4.0 -1 5
- 0.630245 3 4 ping 64 ------- 0 5.0 4.0 -1 5
r 0.64025 3 4 ping 64 ------- 0 5.0 4.0 -1 5
+ 0.8 5 3 ping 64 ------- 0 5.0 4.0 -1 6
- 0.8 5 3 ping 64 ------- 0 5.0 4.0 -1 6
r 0.810005 5 3 ping 64 ------- 0 5.0 4.0 -1 6
+ 0.810005 3 4 ping 64 ------- 0 5.0 4.0 -1 6
- 0.810005 3 4 ping 64 ------- 0 5.0 4.0 -1 6
r 0.82001 3 4 ping 64 ------- 0 5.0 4.0 -1 6
+ 0.82001 4 3 ping 1500 ------- 0 4.0 5.0 -1 7
- 0.82001 4 3 ping 1500 ------- 0 4.0 5.0 -1 7
r 0.83013 4 3 ping 1500 ------- 0 4.0 5.0 -1 7
+ 0.83013 3 5 ping 1500 ------- 0 4.0 5.0 -1 7
- 0.83013 3 5 ping 1500 ------- 0 4.0 5.0 -1 7
r 0.84025 3 5 ping 1500 ------- 0 4.0 5.0 -1 7
