s 1.000000000 _0_ AGT  --- 0 tcp 40 [0 0 0 0] ------- [0:0 3:0 32 0] [0 0] 0 0
r 1.000000000 _0_ RTR  --- 0 tcp 40 [0 0 0 0] ------- [0:0 3:0 32 0] [0 0] 0 0
s 1.000000000 _2_ AGT  --- 1 tcp 40 [0 0 0 0] ------- [2:0 4:0 32 0] [0 0] 0 0
r 1.000000000 _2_ RTR  --- 1 tcp 40 [0 0 0 0] ------- [2:0 4:0 32 0] [0 0] 0 0
s 1.000000000 _0_ RTR  --- 0 AODV 48 [0 0 0 0] ------- [0:255 -1:255 30 0] [0x2 1 1 [3 0] [0 4]] (REQUEST)
s 1.000000000 _2_ RTR  --- 0 AODV 48 [0 0 0 0] ------- [2:255 -1:255 30 0] [0x2 1 1 [4 0] [2 4]] (REQUEST)
s 1.014000000 _0_ MAC  --- 0 AODV 100 [0 ffffffff 0 0] ------- [0:255 -1:255 30 0] [0x2 1 1 [3 0] [0 4]] (REQUEST)
r 1.014400777 _1_ MAC  --- 0 AODV 48 [0 ffffffff 0 0] ------- [0:255 -1:255 30 0] [0x2 1 1 [3 0] [0 4]] (REQUEST)
r 1.014400981 _2_ MAC  --- 0 AODV 48 [0 ffffffff 0 0] ------- [0:255 -1:255 30 0] [0x2 1 1 [3 0] [0 4]] (REQUEST)
r 1.014401578 _6_ MAC  --- 0 AODV 48 [0 ffffffff 0 0] ------- [0:255 -1:255 30 0] [0x2 1 1 [3 0] [0 4]] (REQUEST)
r 1.014425777 _1_ RTR  --- 0 AODV 48 [0 ffffffff 0 0] ------- [0:255 -1:255 30 0] [0x2 1 1 [3 0] [0 4]] (REQUEST)
s 1.014567824 _1_ RTR  --- 0 AODV 48 [0 ffffffff 0 0] ------- [1:255 -1:255 29 0] [0x2 2 1 [3 0] [0 4]] (REQUEST)
s 1.026000000 _2_ MAC  --- 0 AODV 100 [0 ffffffff 2 0] ------- [2:255 -1:255 30 0] [0x2 1 1 [4 0] [2 4]] (REQUEST)
r 1.026400536 _1_ MAC  --- 0 AODV 48 [0 ffffffff 2 0] ------- [2:255 -1:255 30 0] [0x2 1 1 [4 0] [2 4]] (REQUEST)
r 1.026400900 _3_ MAC  --- 0 AODV 48 [0 ffffffff 2 0] ------- [2:255 -1:255 30 0] [0x2 1 1 [4 0] [2 4]] (REQUEST)
r 1.026400936 _6_ MAC  --- 0 AODV 48 [0 ffffffff 2 0] ------- [2:255 -1:255 30 0] [0x2 1 1 [4 0] [2 4]] (REQUEST)
r 1.026400981 _0_ MAC  --- 0 AODV 48 [0 ffffffff 2 0] ------- [2:255 -1:255 30 0] [0x2 1 1 [4 0] [2 4]] (REQUEST)
r 1.026401239 _5_ MAC  --- 0 AODV 48 [0 ffffffff 2 0] ------- [2:255 -1:255 30 0] [0x2 1 1 [4 0] [2 4]] (REQUEST)
r 1.026401799 _4_ MAC  --- 0 AODV 48 [0 ffffffff 2 0] ------- [2:255 -1:255 30 0] [0x2 1 1 [4 0] [2 4]] (REQUEST)
r 1.026425536 _1_ RTR  --- 0 AODV 48 [0 ffffffff 2 0] ------- [2:255 -1:255 30 0] [0x2 1 1 [4 0] [2 4]] (REQUEST)
s 1.027306762 _1_ RTR  --- 0 AODV 48 [0 ffffffff 2 0] ------- [1:255 -1:255 29 0] [0x2 2 1 [4 0] [2 4]] (REQUEST)
s 1.068000000 _1_ MAC  --- 0 AODV 100 [0 ffffffff 1 0] ------- [1:255 -1:255 29 0] [0x2 2 1 [3 0] [0 4]] (REQUEST)
r 1.068400536 _2_ MAC  --- 0 AODV 48 [0 ffffffff 1 0] ------- [1:255 -1:255 29 0] [0x2 2 1 [3 0] [0 4]] (REQUEST)
r 1.068400777 _0_ MAC  --- 0 AODV 48 [0 ffffffff 1 0] ------- [1:255 -1:255 29 0] [0x2 2 1 [3 0] [0 4]] (REQUEST)
r 1.068400801 _6_ MAC  --- 0 AODV 48 [0 ffffffff 1 0] ------- [1:255 -1:255 29 0] [0x2 2 1 [3 0] [0 4]] (REQUEST)
r 1.068401292 _3_ MAC  --- 0 AODV 48 [0 ffffffff 1 0] ------- [1:255 -1:255 29 0] [0x2 2 1 [3 0] [0 4]] (REQUEST)
r 1.068401416 _5_ MAC  --- 0 AODV 48 [0 ffffffff 1 0] ------- [1:255 -1:255 29 0] [0x2 2 1 [3 0] [0 4]] (REQUEST)
r 1.068425536 _2_ RTR  --- 0 AODV 48 [0 ffffffff 1 0] ------- [1:255 -1:255 29 0] [0x2 2 1 [3 0] [0 4]] (REQUEST)
r 1.068425777 _0_ RTR  --- 0 AODV 48 [0 ffffffff 1 0] ------- [1:255 -1:255 29 0] [0x2 2 1 [3 0] [0 4]] (REQUEST)
r 1.068425801 _6_ RTR  --- 0 AODV 48 [0 ffffffff 1 0] ------- [1:255 -1:255 29 0] [0x2 2 1 [3 0] [0 4]] (REQUEST)
s 1.072837269 _2_ RTR  --- 0 AODV 48 [0 ffffffff 1 0] ------- [2:255 -1:255 28 0] [0x2 3 1 [3 0] [0 4]] (REQUEST)
s 1.076417356 _6_ RTR  --- 0 AODV 48 [0 ffffffff 1 0] ------- [6:255 -1:255 28 0] [0x2 3 1 [3 0] [0 4]] (REQUEST)
s 1.116000000 _1_ MAC  --- 0 AODV 100 [0 ffffffff 1 0] ------- [1:255 -1:255 29 0] [0x2 2 1 [4 0] [2 4]] (REQUEST)
r 1.116400536 _2_ MAC  --- 0 AODV 48 [0 ffffffff 1 0] ------- [1:255 -1:255 29 0] [0x2 2 1 [4 0] [2 4]] (REQUEST)
r 1.116400777 _0_ MAC  --- 0 AODV 48 [0 ffffffff 1 0] ------- [1:255 -1:255 29 0] [0x2 2 1 [4 0] [2 4]] (REQUEST)
r 1.116400801 _6_ MAC  --- 0 AODV 48 [0 ffffffff 1 0] ------- [1:255 -1:255 29 0] [0x2 2 1 [4 0] [2 4]] (REQUEST)
r 1.116401292 _3_ MAC  --- 0 AODV 48 [0 ffffffff 1 0] ------- [1:255 -1:255 29 0] [0x2 2 1 [4 0] [2 4]] (REQUEST)
r 1.116401416 _5_ MAC  --- 0 AODV 48 [0 ffffffff 1 0] ------- [1:255 -1:255 29 0] [0x2 2 1 [4 0] [2 4]] (REQUEST)
r 1.116425536 _2_ RTR  --- 0 AODV 48 [0 ffffffff 1 0] ------- [1:255 -1:255 29 0] [0x2 2 1 [4 0] [2 4]] (REQUEST)
r 1.116425777 _0_ RTR  --- 0 AODV 48 [0 ffffffff 1 0] ------- [1:255 -1:255 29 0] [0x2 2 1 [4 0] [2 4]] (REQUEST)
r 1.116425801 _6_ RTR  --- 0 AODV 48 [0 ffffffff 1 0] ------- [1:255 -1:255 29 0] [0x2 2 1 [4 0] [2 4]] (REQUEST)
s 1.119555395 _0_ RTR  --- 0 AODV 48 [0 ffffffff 1 0] ------- [0:255 -1:255 28 0] [0x2 3 1 [4 0] [2 4]] (REQUEST)
s 1.122000000 _2_ MAC  --- 0 AODV 100 [0 ffffffff 2 0] ------- [2:255 -1:255 28 0] [0x2 3 1 [3 0] [0 4]] (REQUEST)
r 1.122400536 _1_ MAC  --- 0 AODV 48 [0 ffffffff 2 0] ------- [2:255 -1:255 28 0] [0x2 3 1 [3 0] [0 4]] (REQUEST)
r 1.122400900 _3_ MAC  --- 0 AODV 48 [0 ffffffff 2 0] ------- [2:255 -1:255 28 0] [0x2 3 1 [3 0] [0 4]] (REQUEST)
r 1.122400936 _6_ MAC  --- 0 AODV 48 [0 ffffffff 2 0] ------- [2:255 -1:255 28 0] [0x2 3 1 [3 0] [0 4]] (REQUEST)
r 1.122400981 _0_ MAC  --- 0 AODV 48 [0 ffffffff 2 0] ------- [2:255 -1:255 28 0] [0x2 3 1 [3 0] [0 4]] (REQUEST)
r 1.122401239 _5_ MAC  --- 0 AODV 48 [0 ffffffff 2 0] ------- [2:255 -1:255 28 0] [0x2 3 1 [3 0] [0 4]] (REQUEST)
r 1.122401799 _4_ MAC  --- 0 AODV 48 [0 ffffffff 2 0] ------- [2:255 -1:255 28 0] [0x2 3 1 [3 0] [0 4]] (REQUEST)
r 1.122425536 _1_ RTR  --- 0 AODV 48 [0 ffffffff 2 0] ------- [2:255 -1:255 28 0] [0x2 3 1 [3 0] [0 4]] (REQUEST)
s 1.124590562 _6_ RTR  --- 0 AODV 48 [0 ffffffff 1 0] ------- [6:255 -1:255 28 0] [0x2 3 1 [4 0] [2 4]] (REQUEST)
s 1.146000000 _6_ MAC  --- 0 AODV 100 [0 ffffffff 6 0] ------- [6:255 -1:255 28 0] [0x2 3 1 [3 0] [0 4]] (REQUEST)
r 1.146400785 _5_ MAC  --- 0 AODV 48 [0 ffffffff 6 0] ------- [6:255 -1:255 28 0] [0x2 3 1 [3 0] [0 4]] (REQUEST)
r 1.146400801 _1_ MAC  --- 0 AODV 48 [0 ffffffff 6 0] ------- [6:255 -1:255 28 0] [0x2 3 1 [3 0] [0 4]] (REQUEST)
r 1.146400936 _2_ MAC  --- 0 AODV 48 [0 ffffffff 6 0] ------- [6:255 -1:255 28 0] [0x2 3 1 [3 0] [0 4]] (REQUEST)
r 1.146401024 _3_ MAC  --- 0 AODV 48 [0 ffffffff 6 0] ------- [6:255 -1:255 28 0] [0x2 3 1 [3 0] [0 4]] (REQUEST)
r 1.146401578 _0_ MAC  --- 0 AODV 48 [0 ffffffff 6 0] ------- [6:255 -1:255 28 0] [0x2 3 1 [3 0] [0 4]] (REQUEST)
r 1.146401597 _4_ MAC  --- 0 AODV 48 [0 ffffffff 6 0] ------- [6:255 -1:255 28 0] [0x2 3 1 [3 0] [0 4]] (REQUEST)
r 1.146425785 _5_ RTR  --- 0 AODV 48 [0 ffffffff 6 0] ------- [6:255 -1:255 28 0] [0x2 3 1 [3 0] [0 4]] (REQUEST)
r 1.146425801 _1_ RTR  --- 0 AODV 48 [0 ffffffff 6 0] ------- [6:255 -1:255 28 0] [0x2 3 1 [3 0] [0 4]] (REQUEST)
s 1.148771803 _5_ RTR  --- 0 AODV 48 [0 ffffffff 6 0] ------- [5:255 -1:255 27 0] [0x2 4 1 [3 0] [0 4]] (REQUEST)
s 1.158000000 _0_ MAC  --- 0 AODV 100 [0 ffffffff 0 0] ------- [0:255 -1:255 28 0] [0x2 3 1 [4 0] [2 4]] (REQUEST)
r 1.158400777 _1_ MAC  --- 0 AODV 48 [0 ffffffff 0 0] ------- [0:255 -1:255 28 0] [0x2 3 1 [4 0] [2 4]] (REQUEST)
r 1.158400981 _2_ MAC  --- 0 AODV 48 [0 ffffffff 0 0] ------- [0:255 -1:255 28 0] [0x2 3 1 [4 0] [2 4]] (REQUEST)
r 1.158401578 _6_ MAC  --- 0 AODV 48 [0 ffffffff 0 0] ------- [0:255 -1:255 28 0] [0x2 3 1 [4 0] [2 4]] (REQUEST)
r 1.158425777 _1_ RTR  --- 0 AODV 48 [0 ffffffff 0 0] ------- [0:255 -1:255 28 0] [0x2 3 1 [4 0] [2 4]] (REQUEST)
s 1.188000000 _5_ MAC  --- 0 AODV 100 [0 ffffffff 5 0] ------- [5:255 -1:255 27 0] [0x2 4 1 [3 0] [0 4]] (REQUEST)
r 1.188400620 _3_ MAC  --- 0 AODV 48 [0 ffffffff 5 0] ------- [5:255 -1:255 27 0] [0x2 4 1 [3 0] [0 4]] (REQUEST)
r 1.188400785 _6_ MAC  --- 0 AODV 48 [0 ffffffff 5 0] ------- [5:255 -1:255 27 0] [0x2 4 1 [3 0] [0 4]] (REQUEST)
r 1.188400818 _4_ MAC  --- 0 AODV 48 [0 ffffffff 5 0] ------- [5:255 -1:255 27 0] [0x2 4 1 [3 0] [0 4]] (REQUEST)
r 1.188401239 _2_ MAC  --- 0 AODV 48 [0 ffffffff 5 0] ------- [5:255 -1:255 27 0] [0x2 4 1 [3 0] [0 4]] (REQUEST)
r 1.188401416 _1_ MAC  --- 0 AODV 48 [0 ffffffff 5 0] ------- [5:255 -1:255 27 0] [0x2 4 1 [3 0] [0 4]] (REQUEST)
r 1.188425620 _3_ RTR  --- 0 AODV 48 [0 ffffffff 5 0] ------- [5:255 -1:255 27 0] [0x2 4 1 [3 0] [0 4]] (REQUEST)
s 1.188425620 _3_ RTR  --- 0 AODV 44 [0 0 0 0] ------- [3:255 0:255 30 5] [0x4 1 [3 4] 10.000000] (REPLY)
r 1.188425785 _6_ RTR  --- 0 AODV 48 [0 ffffffff 5 0] ------- [5:255 -1:255 27 0] [0x2 4 1 [3 0] [0 4]] (REQUEST)
r 1.188425818 _4_ RTR  --- 0 AODV 48 [0 ffffffff 5 0] ------- [5:255 -1:255 27 0] [0x2 4 1 [3 0] [0 4]] (REQUEST)
s 1.194000000 _6_ MAC  --- 0 AODV 100 [0 ffffffff 6 0] ------- [6:255 -1:255 28 0] [0x2 3 1 [4 0] [2 4]] (REQUEST)
r 1.194400785 _5_ MAC  --- 0 AODV 48 [0 ffffffff 6 0] ------- [6:255 -1:255 28 0] [0x2 3 1 [4 0] [2 4]] (REQUEST)
r 1.194400801 _1_ MAC  --- 0 AODV 48 [0 ffffffff 6 0] ------- [6:255 -1:255 28 0] [0x2 3 1 [4 0] [2 4]] (REQUEST)
r 1.194400936 _2_ MAC  --- 0 AODV 48 [0 ffffffff 6 0] ------- [6:255 -1:255 28 0] [0x2 3 1 [4 0] [2 4]] (REQUEST)
r 1.194401024 _3_ MAC  --- 0 AODV 48 [0 ffffffff 6 0] ------- [6:255 -1:255 28 0] [0x2 3 1 [4 0] [2 4]] (REQUEST)
r 1.194401578 _0_ MAC  --- 0 AODV 48 [0 ffffffff 6 0] ------- [6:255 -1:255 28 0] [0x2 3 1 [4 0] [2 4]] (REQUEST)
r 1.194401597 _4_ MAC  --- 0 AODV 48 [0 ffffffff 6 0] ------- [6:255 -1:255 28 0] [0x2 3 1 [4 0] [2 4]] (REQUEST)
r 1.194425785 _5_ RTR  --- 0 AODV 48 [0 ffffffff 6 0] ------- [6:255 -1:255 28 0] [0x2 3 1 [4 0] [2 4]] (REQUEST)
r 1.194425801 _1_ RTR  --- 0 AODV 48 [0 ffffffff 6 0] ------- [6:255 -1:255 28 0] [0x2 3 1 [4 0] [2 4]] (REQUEST)
s 1.194814469 _4_ RTR  --- 0 AODV 48 [0 ffffffff 5 0] ------- [4:255 -1:255 26 0] [0x2 5 1 [3 0] [0 4]] (REQUEST)
s 1.197516576 _5_ RTR  --- 0 AODV 48 [0 ffffffff 6 0] ------- [5:255 -1:255 27 0] [0x2 4 1 [4 0] [2 4]] (REQUEST)
s 1.224000000 _3_ MAC  --- 0 ARP 80 [0 ffffffff 3 0] ------- [REQUEST 3/3 0/5]
r 1.224320620 _5_ MAC  --- 0 ARP 28 [0 ffffffff 3 0] ------- [REQUEST 3/3 0/5]
r 1.224320900 _2_ MAC  --- 0 ARP 28 [0 ffffffff 3 0] ------- [REQUEST 3/3 0/5]
r 1.224320906 _4_ MAC  --- 0 ARP 28 [0 ffffffff 3 0] ------- [REQUEST 3/3 0/5]
r 1.224321024 _6_ MAC  --- 0 ARP 28 [0 ffffffff 3 0] ------- [REQUEST 3/3 0/5]
r 1.224321292 _1_ MAC  --- 0 ARP 28 [0 ffffffff 3 0] ------- [REQUEST 3/3 0/5]
s 1.230000000 _4_ MAC  --- 0 AODV 100 [0 ffffffff 4 0] ------- [4:255 -1:255 26 0] [0x2 5 1 [3 0] [0 4]] (REQUEST)
r 1.230400818 _5_ MAC  --- 0 AODV 48 [0 ffffffff 4 0] ------- [4:255 -1:255 26 0] [0x2 5 1 [3 0] [0 4]] (REQUEST)
r 1.230400906 _3_ MAC  --- 0 AODV 48 [0 ffffffff 4 0] ------- [4:255 -1:255 26 0] [0x2 5 1 [3 0] [0 4]] (REQUEST)
r 1.230401597 _6_ MAC  --- 0 AODV 48 [0 ffffffff 4 0] ------- [4:255 -1:255 26 0] [0x2 5 1 [3 0] [0 4]] (REQUEST)
r 1.230401799 _2_ MAC  --- 0 AODV 48 [0 ffffffff 4 0] ------- [4:255 -1:255 26 0] [0x2 5 1 [3 0] [0 4]] (REQUEST)
r 1.230425818 _5_ RTR  --- 0 AODV 48 [0 ffffffff 4 0] ------- [4:255 -1:255 26 0] [0x2 5 1 [3 0] [0 4]] (REQUEST)
s 1.236000000 _5_ MAC  --- 0 AODV 100 [0 ffffffff 5 0] ------- [5:255 -1:255 27 0] [0x2 4 1 [4 0] [2 4]] (REQUEST)
r 1.236400620 _3_ MAC  --- 0 AODV 48 [0 ffffffff 5 0] ------- [5:255 -1:255 27 0] [0x2 4 1 [4 0] [2 4]] (REQUEST)
r 1.236400785 _6_ MAC  --- 0 AODV 48 [0 ffffffff 5 0] ------- [5:255 -1:255 27 0] [0x2 4 1 [4 0] [2 4]] (REQUEST)
r 1.236400818 _4_ MAC  --- 0 AODV 48 [0 ffffffff 5 0] ------- [5:255 -1:255 27 0] [0x2 4 1 [4 0] [2 4]] (REQUEST)
r 1.236401239 _2_ MAC  --- 0 AODV 48 [0 ffffffff 5 0] ------- [5:255 -1:255 27 0] [0x2 4 1 [4 0] [2 4]] (REQUEST)
r 1.236401416 _1_ MAC  --- 0 AODV 48 [0 ffffffff 5 0] ------- [5:255 -1:255 27 0] [0x2 4 1 [4 0] [2 4]] (REQUEST)
r 1.236425620 _3_ RTR  --- 0 AODV 48 [0 ffffffff 5 0] ------- [5:255 -1:255 27 0] [0x2 4 1 [4 0] [2 4]] (REQUEST)
r 1.236425785 _6_ RTR  --- 0 AODV 48 [0 ffffffff 5 0] ------- [5:255 -1:255 27 0] [0x2 4 1 [4 0] [2 4]] (REQUEST)
r 1.236425818 _4_ RTR  --- 0 AODV 48 [0 ffffffff 5 0] ------- [5:255 -1:255 27 0] [0x2 4 1 [4 0] [2 4]] (REQUEST)
s 1.236425818 _4_ RTR  --- 0 AODV 44 [0 0 0 0] ------- [4:255 2:255 30 5] [0x4 1 [4 4] 10.000000] (REPLY)
s 1.244788855 _3_ RTR  --- 0 AODV 48 [0 ffffffff 5 0] ------- [3:255 -1:255 26 0] [0x2 5 1 [4 0] [2 4]] (REQUEST)
s 1.272000000 _3_ MAC  --- 0 AODV 100 [0 ffffffff 3 0] ------- [3:255 -1:255 26 0] [0x2 5 1 [4 0] [2 4]] (REQUEST)
r 1.272400620 _5_ MAC  --- 0 AODV 48 [0 ffffffff 3 0] ------- [3:255 -1:255 26 0] [0x2 5 1 [4 0] [2 4]] (REQUEST)
r 1.272400900 _2_ MAC  --- 0 AODV 48 [0 ffffffff 3 0] ------- [3:255 -1:255 26 0] [0x2 5 1 [4 0] [2 4]] (REQUEST)
r 1.272400906 _4_ MAC  --- 0 AODV 48 [0 ffffffff 3 0] ------- [3:255 -1:255 26 0] [0x2 5 1 [4 0] [2 4]] (REQUEST)
r 1.272401024 _6_ MAC  --- 0 AODV 48 [0 ffffffff 3 0] ------- [3:255 -1:255 26 0] [0x2 5 1 [4 0] [2 4]] (REQUEST)
r 1.272401292 _1_ MAC  --- 0 AODV 48 [0 ffffffff 3 0] ------- [3:255 -1:255 26 0] [0x2 5 1 [4 0] [2 4]] (REQUEST)
r 1.272425620 _5_ RTR  --- 0 AODV 48 [0 ffffffff 3 0] ------- [3:255 -1:255 26 0] [0x2 5 1 [4 0] [2 4]] (REQUEST)
s 1.278000000 _4_ MAC  --- 0 ARP 80 [0 ffffffff 4 0] ------- [REQUEST 4/4 0/5]
r 1.278320818 _5_ MAC  --- 0 ARP 28 [0 ffffffff 4 0] ------- [REQUEST 4/4 0/5]
r 1.278320906 _3_ MAC  --- 0 ARP 28 [0 ffffffff 4 0] ------- [REQUEST 4/4 0/5]
r 1.278321597 _6_ MAC  --- 0 ARP 28 [0 ffffffff 4 0] ------- [REQUEST 4/4 0/5]
r 1.278321799 _2_ MAC  --- 0 ARP 28 [0 ffffffff 4 0] ------- [REQUEST 4/4 0/5]
s 1.284000000 _5_ MAC  --- 0 ARP 80 [5 3 5 0] ------- [REPLY 5/5 3/3]
r 1.284320620 _3_ MAC  --- 0 ARP 28 [5 3 5 0] ------- [REPLY 5/5 3/3]
s 1.320000000 _3_ MAC  --- 0 AODV 96 [5 5 3 0] ------- [3:255 0:255 30 5] [0x4 1 [3 4] 10.000000] (REPLY)
r 1.320384620 _5_ MAC  --- 0 AODV 44 [5 5 3 0] ------- [3:255 0:255 30 5] [0x4 1 [3 4] 10.000000] (REPLY)
r 1.320409620 _5_ RTR  --- 0 AODV 44 [5 5 3 0] ------- [3:255 0:255 30 5] [0x4 1 [3 4] 10.000000] (REPLY)
f 1.320409620 _5_ RTR  --- 0 AODV 44 [5 5 3 0] ------- [3:255 0:255 29 6] [0x4 2 [3 4] 10.000000] (REPLY)
s 1.332000000 _5_ MAC  --- 0 ARP 80 [5 4 5 0] ------- [REPLY 5/5 4/4]
r 1.332320818 _4_ MAC  --- 0 ARP 28 [5 4 5 0] ------- [REPLY 5/5 4/4]
s 1.374000000 _4_ MAC  --- 0 AODV 96 [5 5 4 0] ------- [4:255 2:255 30 5] [0x4 1 [4 4] 10.000000] (REPLY)
r 1.374384818 _5_ MAC  --- 0 AODV 44 [5 5 4 0] ------- [4:255 2:255 30 5] [0x4 1 [4 4] 10.000000] (REPLY)
r 1.374409818 _5_ RTR  --- 0 AODV 44 [5 5 4 0] ------- [4:255 2:255 30 5] [0x4 1 [4 4] 10.000000] (REPLY)
f 1.374409818 _5_ RTR  --- 0 AODV 44 [5 5 4 0] ------- [4:255 2:255 29 6] [0x4 2 [4 4] 10.000000] (REPLY)
D 1.374409818 _5_ IFQ  ARP 0 AODV 44 [5 5 5 0] ------- [3:255 0:255 29 6] [0x4 2 [3 4] 10.000000] (REPLY)
s 1.380000000 _5_ MAC  --- 0 ARP 80 [0 ffffffff 5 0] ------- [REQUEST 5/5 0/6]
r 1.380320620 _3_ MAC  --- 0 ARP 28 [0 ffffffff 5 0] ------- [REQUEST 5/5 0/6]
r 1.380320785 _6_ MAC  --- 0 ARP 28 [0 ffffffff 5 0] ------- [REQUEST 5/5 0/6]
r 1.380320818 _4_ MAC  --- 0 ARP 28 [0 ffffffff 5 0] ------- [REQUEST 5/5 0/6]
r 1.380321239 _2_ MAC  --- 0 ARP 28 [0 ffffffff 5 0] ------- [REQUEST 5/5 0/6]
r 1.380321416 _1_ MAC  --- 0 ARP 28 [0 ffffffff 5 0] ------- [REQUEST 5/5 0/6]
s 1.428000000 _5_ MAC  --- 0 ARP 80 [0 ffffffff 5 0] ------- [REQUEST 5/5 0/6]
r 1.428320620 _3_ MAC  --- 0 ARP 28 [0 ffffffff 5 0] ------- [REQUEST 5/5 0/6]
r 1.428320785 _6_ MAC  --- 0 ARP 28 [0 ffffffff 5 0] ------- [REQUEST 5/5 0/6]
r 1.428320818 _4_ MAC  --- 0 ARP 28 [0 ffffffff 5 0] ------- [REQUEST 5/5 0/6]
r 1.428321239 _2_ MAC  --- 0 ARP 28 [0 ffffffff 5 0] ------- [REQUEST 5/5 0/6]
r 1.428321416 _1_ MAC  --- 0 ARP 28 [0 ffffffff 5 0] ------- [REQUEST 5/5 0/6]
s 1.434000000 _6_ MAC  --- 0 ARP 80 [5 5 6 0] ------- [REPLY 6/6 5/5]
r 1.434320785 _5_ MAC  --- 0 ARP 28 [5 5 6 0] ------- [REPLY 6/6 5/5]
s 1.476000000 _5_ MAC  --- 0 AODV 96 [5 6 5 0] ------- [4:255 2:255 29 6] [0x4 2 [4 4] 10.000000] (REPLY)
r 1.476384785 _6_ MAC  --- 0 AODV 44 [5 6 5 0] ------- [4:255 2:255 29 6] [0x4 2 [4 4] 10.000000] (REPLY)
r 1.476409785 _6_ RTR  --- 0 AODV 44 [5 6 5 0] ------- [4:255 2:255 29 6] [0x4 2 [4 4] 10.000000] (REPLY)
f 1.476409785 _6_ RTR  --- 0 AODV 44 [5 6 5 0] ------- [4:255 2:255 28 1] [0x4 3 [4 4] 10.000000] (REPLY)
s 1.482000000 _6_ MAC  --- 0 ARP 80 [5 5 6 0] ------- [REPLY 6/6 5/5]
r 1.482320785 _5_ MAC  --- 0 ARP 28 [5 5 6 0] ------- [REPLY 6/6 5/5]
s 1.530000000 _6_ MAC  --- 0 ARP 80 [0 ffffffff 6 0] ------- [REQUEST 6/6 0/1]
r 1.530320785 _5_ MAC  --- 0 ARP 28 [0 ffffffff 6 0] ------- [REQUEST 6/6 0/1]
r 1.530320801 _1_ MAC  --- 0 ARP 28 [0 ffffffff 6 0] ------- [REQUEST 6/6 0/1]
r 1.530320936 _2_ MAC  --- 0 ARP 28 [0 ffffffff 6 0] ------- [REQUEST 6/6 0/1]
r 1.530321024 _3_ MAC  --- 0 ARP 28 [0 ffffffff 6 0] ------- [REQUEST 6/6 0/1]
r 1.530321578 _0_ MAC  --- 0 ARP 28 [0 ffffffff 6 0] ------- [REQUEST 6/6 0/1]
r 1.530321597 _4_ MAC  --- 0 ARP 28 [0 ffffffff 6 0] ------- [REQUEST 6/6 0/1]
s 1.548000000 _1_ MAC  --- 0 ARP 80 [5 6 1 0] ------- [REPLY 1/1 6/6]
r 1.548320801 _6_ MAC  --- 0 ARP 28 [5 6 1 0] ------- [REPLY 1/1 6/6]
s 1.626000000 _6_ MAC  --- 0 AODV 96 [5 1 6 0] ------- [4:255 2:255 28 1] [0x4 3 [4 4] 10.000000] (REPLY)
r 1.626384801 _1_ MAC  --- 0 AODV 44 [5 1 6 0] ------- [4:255 2:255 28 1] [0x4 3 [4 4] 10.000000] (REPLY)
r 1.626409801 _1_ RTR  --- 0 AODV 44 [5 1 6 0] ------- [4:255 2:255 28 1] [0x4 3 [4 4] 10.000000] (REPLY)
f 1.626409801 _1_ RTR  --- 0 AODV 44 [5 1 6 0] ------- [4:255 2:255 27 2] [0x4 4 [4 4] 10.000000] (REPLY)
s 1.644000000 _1_ MAC  --- 0 ARP 80 [0 ffffffff 1 0] ------- [REQUEST 1/1 0/2]
r 1.644320536 _2_ MAC  --- 0 ARP 28 [0 ffffffff 1 0] ------- [REQUEST 1/1 0/2]
r 1.644320777 _0_ MAC  --- 0 ARP 28 [0 ffffffff 1 0] ------- [REQUEST 1/1 0/2]
r 1.644320801 _6_ MAC  --- 0 ARP 28 [0 ffffffff 1 0] ------- [REQUEST 1/1 0/2]
r 1.644321292 _3_ MAC  --- 0 ARP 28 [0 ffffffff 1 0] ------- [REQUEST 1/1 0/2]
r 1.644321416 _5_ MAC  --- 0 ARP 28 [0 ffffffff 1 0] ------- [REQUEST 1/1 0/2]
s 1.698000000 _2_ MAC  --- 0 ARP 80 [5 1 2 0] ------- [REPLY 2/2 1/1]
r 1.698320536 _1_ MAC  --- 0 ARP 28 [5 1 2 0] ------- [REPLY 2/2 1/1]
s 1.740000000 _1_ MAC  --- 0 AODV 96 [5 2 1 0] ------- [4:255 2:255 27 2] [0x4 4 [4 4] 10.000000] (REPLY)
r 1.740384536 _2_ MAC  --- 0 AODV 44 [5 2 1 0] ------- [4:255 2:255 27 2] [0x4 4 [4 4] 10.000000] (REPLY)
r 1.740409536 _2_ RTR  --- 0 AODV 44 [5 2 1 0] ------- [4:255 2:255 27 2] [0x4 4 [4 4] 10.000000] (REPLY)
s 1.740409536 _2_ RTR  --- 1 tcp 40 [0 0 0 0] ------- [2:0 4:0 30 1] [0 0] 0 0
s 1.794000000 _2_ MAC  --- 1 tcp 92 [5 1 2 0] ------- [2:0 4:0 30 1] [0 0] 0 0
r 1.794368536 _1_ MAC  --- 1 tcp 40 [5 1 2 0] ------- [2:0 4:0 30 1] [0 0] 1 0
r 1.794393536 _1_ RTR  --- 1 tcp 40 [5 1 2 0] ------- [2:0 4:0 30 1] [0 0] 1 0
f 1.794393536 _1_ RTR  --- 1 tcp 40 [5 1 2 0] ------- [2:0 4:0 29 6] [0 0] 1 0
s 1.836000000 _1_ MAC  --- 1 tcp 92 [5 6 1 0] ------- [2:0 4:0 29 6] [0 0] 1 0
r 1.836368801 _6_ MAC  --- 1 tcp 40 [5 6 1 0] ------- [2:0 4:0 29 6] [0 0] 2 0
r 1.836393801 _6_ RTR  --- 1 tcp 40 [5 6 1 0] ------- [2:0 4:0 29 6] [0 0] 2 0
f 1.836393801 _6_ RTR  --- 1 tcp 40 [5 6 1 0] ------- [2:0 4:0 28 5] [0 0] 2 0
s 1.914000000 _6_ MAC  --- 1 tcp 92 [5 5 6 0] ------- [2:0 4:0 28 5] [0 0] 2 0
r 1.914368785 _5_ MAC  --- 1 tcp 40 [5 5 6 0] ------- [2:0 4:0 28 5] [0 0] 3 0
r 1.914393785 _5_ RTR  --- 1 tcp 40 [5 5 6 0] ------- [2:0 4:0 28 5] [0 0] 3 0
f 1.914393785 _5_ RTR  --- 1 tcp 40 [5 5 6 0] ------- [2:0 4:0 27 4] [0 0] 3 0
s 1.956000000 _5_ MAC  --- 1 tcp 92 [5 4 5 0] ------- [2:0 4:0 27 4] [0 0] 3 0
r 1.956368818 _4_ MAC  --- 1 tcp 40 [5 4 5 0] ------- [2:0 4:0 27 4] [0 0] 4 0
r 1.956393818 _4_ AGT  --- 1 tcp 40 [5 4 5 0] ------- [2:0 4:0 27 4] [0 0] 4 0
s 1.956393818 _4_ AGT  --- 2 ack 40 [0 0 0 0] ------- [4:0 2:0 32 0] [0 0] 0 0
r 1.956393818 _4_ RTR  --- 2 ack 40 [0 0 0 0] ------- [4:0 2:0 32 0] [0 0] 0 0
s 1.956393818 _4_ RTR  --- 2 ack 40 [0 0 0 0] ------- [4:0 2:0 30 5] [0 0] 0 0
s 1.998000000 _4_ MAC  --- 2 ack 92 [5 5 4 0] ------- [4:0 2:0 30 5] [0 0] 0 0
r 1.998368818 _5_ MAC  --- 2 ack 40 [5 5 4 0] ------- [4:0 2:0 30 5] [0 0] 1 0
r 1.998393818 _5_ RTR  --- 2 ack 40 [5 5 4 0] ------- [4:0 2:0 30 5] [0 0] 1 0
f 1.998393818 _5_ RTR  --- 2 ack 40 [5 5 4 0] ------- [4:0 2:0 29 6] [0 0] 1 0
s 2.052000000 _5_ MAC  --- 2 ack 92 [5 6 5 0] ------- [4:0 2:0 29 6] [0 0] 1 0
r 2.052368785 _6_ MAC  --- 2 ack 40 [5 6 5 0] ------- [4:0 2:0 29 6] [0 0] 2 0
r 2.052393785 _6_ RTR  --- 2 ack 40 [5 6 5 0] ------- [4:0 2:0 29 6] [0 0] 2 0
f 2.052393785 _6_ RTR  --- 2 ack 40 [5 6 5 0] ------- [4:0 2:0 28 1] [0 0] 2 0
s 2.106000000 _6_ MAC  --- 2 ack 92 [5 1 6 0] ------- [4:0 2:0 28 1] [0 0] 2 0
r 2.106368801 _1_ MAC  --- 2 ack 40 [5 1 6 0] ------- [4:0 2:0 28 1] [0 0] 3 0
r 2.106393801 _1_ RTR  --- 2 ack 40 [5 1 6 0] ------- [4:0 2:0 28 1] [0 0] 3 0
f 2.106393801 _1_ RTR  --- 2 ack 40 [5 1 6 0] ------- [4:0 2:0 27 2] [0 0] 3 0
s 2.124000000 _1_ MAC  --- 2 ack 92 [5 2 1 0] ------- [4:0 2:0 27 2] [0 0] 3 0
r 2.124368536 _2_ MAC  --- 2 ack 40 [5 2 1 0] ------- [4:0 2:0 27 2] [0 0] 4 0
r 2.124393536 _2_ AGT  --- 2 ack 40 [5 2 1 0] ------- [4:0 2:0 27 2] [0 0] 4 0
M 3.00000 0 (402.00, 232.00, 0.00), (1300.00, 570.00), 20.00
s 3.000000000 _0_ RTR  --- 0 AODV 48 [0 0 0 0] ------- [0:255 -1:255 30 0] [0x2 1 2 [3 0] [0 6]] (REQUEST)
s 3.030000000 _0_ MAC  --- 0 AODV 100 [0 ffffffff 0 0] ------- [0:255 -1:255 30 0] [0x2 1 2 [3 0] [0 6]] (REQUEST)
r 3.030400775 _1_ MAC  --- 0 AODV 48 [0 ffffffff 0 0] ------- [0:255 -1:255 30 0] [0x2 1 2 [3 0] [0 6]] (REQUEST)
r 3.030400979 _2_ MAC  --- 0 AODV 48 [0 ffffffff 0 0] ------- [0:255 -1:255 30 0] [0x2 1 2 [3 0] [0 6]] (REQUEST)
r 3.030401576 _6_ MAC  --- 0 AODV 48 [0 ffffffff 0 0] ------- [0:255 -1:255 30 0] [0x2 1 2 [3 0] [0 6]] (REQUEST)
r 3.030425775 _1_ RTR  --- 0 AODV 48 [0 ffffffff 0 0] ------- [0:255 -1:255 30 0] [0x2 1 2 [3 0] [0 6]] (REQUEST)
s 3.032067229 _1_ RTR  --- 0 AODV 48 [0 ffffffff 0 0] ------- [1:255 -1:255 29 0] [0x2 2 2 [3 0] [0 6]] (REQUEST)
s 3.084000000 _1_ MAC  --- 0 AODV 100 [0 ffffffff 1 0] ------- [1:255 -1:255 29 0] [0x2 2 2 [3 0] [0 6]] (REQUEST)
r 3.084400536 _2_ MAC  --- 0 AODV 48 [0 ffffffff 1 0] ------- [1:255 -1:255 29 0] [0x2 2 2 [3 0] [0 6]] (REQUEST)
r 3.084400771 _0_ MAC  --- 0 AODV 48 [0 ffffffff 1 0] ------- [1:255 -1:255 29 0] [0x2 2 2 [3 0] [0 6]] (REQUEST)
r 3.084400801 _6_ MAC  --- 0 AODV 48 [0 ffffffff 1 0] ------- [1:255 -1:255 29 0] [0x2 2 2 [3 0] [0 6]] (REQUEST)
r 3.084401292 _3_ MAC  --- 0 AODV 48 [0 ffffffff 1 0] ------- [1:255 -1:255 29 0] [0x2 2 2 [3 0] [0 6]] (REQUEST)
r 3.084401416 _5_ MAC  --- 0 AODV 48 [0 ffffffff 1 0] ------- [1:255 -1:255 29 0] [0x2 2 2 [3 0] [0 6]] (REQUEST)
r 3.084425536 _2_ RTR  --- 0 AODV 48 [0 ffffffff 1 0] ------- [1:255 -1:255 29 0] [0x2 2 2 [3 0] [0 6]] (REQUEST)
r 3.084425771 _0_ RTR  --- 0 AODV 48 [0 ffffffff 1 0] ------- [1:255 -1:255 29 0] [0x2 2 2 [3 0] [0 6]] (REQUEST)
r 3.084425801 _6_ RTR  --- 0 AODV 48 [0 ffffffff 1 0] ------- [1:255 -1:255 29 0] [0x2 2 2 [3 0] [0 6]] (REQUEST)
s 3.084853481 _2_ RTR  --- 0 AODV 48 [0 ffffffff 1 0] ------- [2:255 -1:255 28 0] [0x2 3 2 [3 0] [0 6]] (REQUEST)
s 3.090826478 _6_ RTR  --- 0 AODV 48 [0 ffffffff 1 0] ------- [6:255 -1:255 28 0] [0x2 3 2 [3 0] [0 6]] (REQUEST)
s 3.138000000 _2_ MAC  --- 0 AODV 100 [0 ffffffff 2 0] ------- [2:255 -1:255 28 0] [0x2 3 2 [3 0] [0 6]] (REQUEST)
r 3.138400536 _1_ MAC  --- 0 AODV 48 [0 ffffffff 2 0] ------- [2:255 -1:255 28 0] [0x2 3 2 [3 0] [0 6]] (REQUEST)
r 3.138400900 _3_ MAC  --- 0 AODV 48 [0 ffffffff 2 0] ------- [2:255 -1:255 28 0] [0x2 3 2 [3 0] [0 6]] (REQUEST)
r 3.138400936 _6_ MAC  --- 0 AODV 48 [0 ffffffff 2 0] ------- [2:255 -1:255 28 0] [0x2 3 2 [3 0] [0 6]] (REQUEST)
r 3.138400973 _0_ MAC  --- 0 AODV 48 [0 ffffffff 2 0] ------- [2:255 -1:255 28 0] [0x2 3 2 [3 0] [0 6]] (REQUEST)
r 3.138401239 _5_ MAC  --- 0 AODV 48 [0 ffffffff 2 0] ------- [2:255 -1:255 28 0] [0x2 3 2 [3 0] [0 6]] (REQUEST)
r 3.138401799 _4_ MAC  --- 0 AODV 48 [0 ffffffff 2 0] ------- [2:255 -1:255 28 0] [0x2 3 2 [3 0] [0 6]] (REQUEST)
r 3.138425536 _1_ RTR  --- 0 AODV 48 [0 ffffffff 2 0] ------- [2:255 -1:255 28 0] [0x2 3 2 [3 0] [0 6]] (REQUEST)
s 3.162000000 _6_ MAC  --- 0 AODV 100 [0 ffffffff 6 0] ------- [6:255 -1:255 28 0] [0x2 3 2 [3 0] [0 6]] (REQUEST)
r 3.162400785 _5_ MAC  --- 0 AODV 48 [0 ffffffff 6 0] ------- [6:255 -1:255 28 0] [0x2 3 2 [3 0] [0 6]] (REQUEST)
r 3.162400801 _1_ MAC  --- 0 AODV 48 [0 ffffffff 6 0] ------- [6:255 -1:255 28 0] [0x2 3 2 [3 0] [0 6]] (REQUEST)
r 3.162400936 _2_ MAC  --- 0 AODV 48 [0 ffffffff 6 0] ------- [6:255 -1:255 28 0] [0x2 3 2 [3 0] [0 6]] (REQUEST)
r 3.162401024 _3_ MAC  --- 0 AODV 48 [0 ffffffff 6 0] ------- [6:255 -1:255 28 0] [0x2 3 2 [3 0] [0 6]] (REQUEST)
r 3.162401567 _0_ MAC  --- 0 AODV 48 [0 ffffffff 6 0] ------- [6:255 -1:255 28 0] [0x2 3 2 [3 0] [0 6]] (REQUEST)
r 3.162401597 _4_ MAC  --- 0 AODV 48 [0 ffffffff 6 0] ------- [6:255 -1:255 28 0] [0x2 3 2 [3 0] [0 6]] (REQUEST)
r 3.162425785 _5_ RTR  --- 0 AODV 48 [0 ffffffff 6 0] ------- [6:255 -1:255 28 0] [0x2 3 2 [3 0] [0 6]] (REQUEST)
s 3.162425785 _5_ RTR  --- 0 AODV 44 [0 0 0 0] ------- [5:255 0:255 30 6] [0x4 2 [3 4] 8.000000] (REPLY)
r 3.162425801 _1_ RTR  --- 0 AODV 48 [0 ffffffff 6 0] ------- [6:255 -1:255 28 0] [0x2 3 2 [3 0] [0 6]] (REQUEST)
s 3.204000000 _5_ MAC  --- 0 AODV 96 [5 6 5 0] ------- [5:255 0:255 30 6] [0x4 2 [3 4] 8.000000] (REPLY)
r 3.204384785 _6_ MAC  --- 0 AODV 44 [5 6 5 0] ------- [5:255 0:255 30 6] [0x4 2 [3 4] 8.000000] (REPLY)
r 3.204409785 _6_ RTR  --- 0 AODV 44 [5 6 5 0] ------- [5:255 0:255 30 6] [0x4 2 [3 4] 8.000000] (REPLY)
f 3.204409785 _6_ RTR  --- 0 AODV 44 [5 6 5 0] ------- [5:255 0:255 29 1] [0x4 3 [3 4] 8.000000] (REPLY)
s 3.258000000 _6_ MAC  --- 0 AODV 96 [5 1 6 0] ------- [5:255 0:255 29 1] [0x4 3 [3 4] 8.000000] (REPLY)
r 3.258384801 _1_ MAC  --- 0 AODV 44 [5 1 6 0] ------- [5:255 0:255 29 1] [0x4 3 [3 4] 8.000000] (REPLY)
r 3.258409801 _1_ RTR  --- 0 AODV 44 [5 1 6 0] ------- [5:255 0:255 29 1] [0x4 3 [3 4] 8.000000] (REPLY)
f 3.258409801 _1_ RTR  --- 0 AODV 44 [5 1 6 0] ------- [5:255 0:255 28 0] [0x4 4 [3 4] 8.000000] (REPLY)
s 3.276000000 _1_ MAC  --- 0 ARP 80 [0 ffffffff 1 0] ------- [REQUEST 1/1 0/0]
r 3.276320536 _2_ MAC  --- 0 ARP 28 [0 ffffffff 1 0] ------- [REQUEST 1/1 0/0]
r 3.276320759 _0_ MAC  --- 0 ARP 28 [0 ffffffff 1 0] ------- [REQUEST 1/1 0/0]
r 3.276320801 _6_ MAC  --- 0 ARP 28 [0 ffffffff 1 0] ------- [REQUEST 1/1 0/0]
r 3.276321292 _3_ MAC  --- 0 ARP 28 [0 ffffffff 1 0] ------- [REQUEST 1/1 0/0]
r 3.276321416 _5_ MAC  --- 0 ARP 28 [0 ffffffff 1 0] ------- [REQUEST 1/1 0/0]
s 3.318000000 _0_ MAC  --- 0 ARP 80 [5 1 0 0] ------- [REPLY 0/0 1/1]
r 3.318320756 _1_ MAC  --- 0 ARP 28 [5 1 0 0] ------- [REPLY 0/0 1/1]
s 3.372000000 _1_ MAC  --- 0 AODV 96 [5 0 1 0] ------- [5:255 0:255 28 0] [0x4 4 [3 4] 8.000000] (REPLY)
r 3.372384752 _0_ MAC  --- 0 AODV 44 [5 0 1 0] ------- [5:255 0:255 28 0] [0x4 4 [3 4] 8.000000] (REPLY)
r 3.372409752 _0_ RTR  --- 0 AODV 44 [5 0 1 0] ------- [5:255 0:255 28 0] [0x4 4 [3 4] 8.000000] (REPLY)
s 3.372409752 _0_ RTR  --- 0 tcp 40 [0 0 0 0] ------- [0:0 3:0 30 1] [0 0] 0 0
s 3.414000000 _0_ MAC  --- 0 tcp 92 [5 1 0 0] ------- [0:0 3:0 30 1] [0 0] 0 0
r 3.414368750 _1_ MAC  --- 0 tcp 40 [5 1 0 0] ------- [0:0 3:0 30 1] [0 0] 1 0
r 3.414393750 _1_ RTR  --- 0 tcp 40 [5 1 0 0] ------- [0:0 3:0 30 1] [0 0] 1 0
f 3.414393750 _1_ RTR  --- 0 tcp 40 [5 1 0 0] ------- [0:0 3:0 29 6] [0 0] 1 0
s 3.468000000 _1_ MAC  --- 0 tcp 92 [5 6 1 0] ------- [0:0 3:0 29 6] [0 0] 1 0
r 3.468368801 _6_ MAC  --- 0 tcp 40 [5 6 1 0] ------- [0:0 3:0 29 6] [0 0] 2 0
r 3.468393801 _6_ RTR  --- 0 tcp 40 [5 6 1 0] ------- [0:0 3:0 29 6] [0 0] 2 0
f 3.468393801 _6_ RTR  --- 0 tcp 40 [5 6 1 0] ------- [0:0 3:0 28 5] [0 0] 2 0
s 3.546000000 _6_ MAC  --- 0 tcp 92 [5 5 6 0] ------- [0:0 3:0 28 5] [0 0] 2 0
r 3.546368785 _5_ MAC  --- 0 tcp 40 [5 5 6 0] ------- [0:0 3:0 28 5] [0 0] 3 0
r 3.546393785 _5_ RTR  --- 0 tcp 40 [5 5 6 0] ------- [0:0 3:0 28 5] [0 0] 3 0
f 3.546393785 _5_ RTR  --- 0 tcp 40 [5 5 6 0] ------- [0:0 3:0 27 3] [0 0] 3 0
s 3.588000000 _5_ MAC  --- 0 tcp 92 [5 3 5 0] ------- [0:0 3:0 27 3] [0 0] 3 0
r 3.588368620 _3_ MAC  --- 0 tcp 40 [5 3 5 0] ------- [0:0 3:0 27 3] [0 0] 4 0
r 3.588393620 _3_ AGT  --- 0 tcp 40 [5 3 5 0] ------- [0:0 3:0 27 3] [0 0] 4 0
s 3.588393620 _3_ AGT  --- 3 ack 40 [0 0 0 0] ------- [3:0 0:0 32 0] [0 0] 0 0
r 3.588393620 _3_ RTR  --- 3 ack 40 [0 0 0 0] ------- [3:0 0:0 32 0] [0 0] 0 0
s 3.588393620 _3_ RTR  --- 3 ack 40 [0 0 0 0] ------- [3:0 0:0 30 5] [0 0] 0 0
s 3.624000000 _3_ MAC  --- 3 ack 92 [5 5 3 0] ------- [3:0 0:0 30 5] [0 0] 0 0
r 3.624368620 _5_ MAC  --- 3 ack 40 [5 5 3 0] ------- [3:0 0:0 30 5] [0 0] 1 0
r 3.624393620 _5_ RTR  --- 3 ack 40 [5 5 3 0] ------- [3:0 0:0 30 5] [0 0] 1 0
f 3.624393620 _5_ RTR  --- 3 ack 40 [5 5 3 0] ------- [3:0 0:0 29 6] [0 0] 1 0
s 3.684000000 _5_ MAC  --- 3 ack 92 [5 6 5 0] ------- [3:0 0:0 29 6] [0 0] 1 0
r 3.684368785 _6_ MAC  --- 3 ack 40 [5 6 5 0] ------- [3:0 0:0 29 6] [0 0] 2 0
r 3.684393785 _6_ RTR  --- 3 ack 40 [5 6 5 0] ------- [3:0 0:0 29 6] [0 0] 2 0
f 3.684393785 _6_ RTR  --- 3 ack 40 [5 6 5 0] ------- [3:0 0:0 28 1] [0 0] 2 0
s 3.738000000 _6_ MAC  --- 3 ack 92 [5 1 6 0] ------- [3:0 0:0 28 1] [0 0] 2 0
r 3.738368801 _1_ MAC  --- 3 ack 40 [5 1 6 0] ------- [3:0 0:0 28 1] [0 0] 3 0
r 3.738393801 _1_ RTR  --- 3 ack 40 [5 1 6 0] ------- [3:0 0:0 28 1] [0 0] 3 0
f 3.738393801 _1_ RTR  --- 3 ack 40 [5 1 6 0] ------- [3:0 0:0 27 0] [0 0] 3 0
s 3.756000000 _1_ MAC  --- 3 ack 92 [5 0 1 0] ------- [3:0 0:0 27 0] [0 0] 3 0
r 3.756368727 _0_ MAC  --- 3 ack 40 [5 0 1 0] ------- [3:0 0:0 27 0] [0 0] 4 0
r 3.756393727 _0_ AGT  --- 3 ack 40 [5 0 1 0] ------- [3:0 0:0 27 0] [0 0] 4 0
s 3.756393727 _0_ AGT  --- 4 tcp 1540 [0 0 0 0] ------- [0:0 3:0 32 0] [1 0] 0 0
r 3.756393727 _0_ RTR  --- 4 tcp 1540 [0 0 0 0] ------- [0:0 3:0 32 0] [1 0] 0 0
s 3.756393727 _0_ AGT  --- 5 tcp 1540 [0 0 0 0] ------- [0:0 3:0 32 0] [2 0] 0 0
r 3.756393727 _0_ RTR  --- 5 tcp 1540 [0 0 0 0] ------- [0:0 3:0 32 0] [2 0] 0 0
s 3.756393727 _0_ RTR  --- 4 tcp 1540 [0 0 0 0] ------- [0:0 3:0 30 1] [1 0] 0 0