+ 1 0 1 tcp 40 ------- 0 0.0 2.0 0 0
d 1 0 1 tcp 40 ------- 0 0.0 2.0 0 0
