n -t * -s 0  -x 402 -y 232 -Z 0 -z 20  -v circle -c black
n -t * -s 1  -x 603 -y 350 -Z 0 -z 20  -v circle -c black
n -t * -s 2  -x 696 -y 219 -Z 0 -z 20  -v circle -c black
n -t * -s 3  -x 966 -y 214 -Z 0 -z 20  -v circle -c black
n -t * -s 4  -x 1234 -y 260 -Z 0 -z 20  -v circle -c black
n -t * -s 5  -x 1026 -y 390 -Z 0 -z 20  -v circle -c black
n -t * -s 6  -x 807 -y 477 -Z 0 -z 20  -v circle -c black
V -t * -v 1.0a5 -a 0
W -t * -x 1334 -y 577
A -t * -n 1 -p 0 -o 0x7fffffff -c 30 -a 1
A -t * -h 1 -m 1073741823 -s 0
+ -t 1.000000000 -s 0 -d -1 -p tcp -e 40 -c 2 -a 0 -i 0 -k AGT 
- -t 1.000000000 -s 0 -d -1 -p tcp -e 40 -c 2 -a 0 -i 0 -k AGT
h -t 1.000000000 -s 0 -d -1 -p tcp -e 40 -c 2 -a 0 -i 0 -k AGT
+ -t 1.000000000 -s 2 -d -1 -p tcp -e 40 -c 2 -a 0 -i 1 -k AGT 
- -t 1.000000000 -s 2 -d -1 -p tcp -e 40 -c 2 -a 0 -i 1 -k AGT
h -t 1.000000000 -s 2 -d -1 -p tcp -e 40 -c 2 -a 0 -i 1 -k AGT
+ -t 1.000000000 -s 0 -d -1 -p AODV -e 48 -c 2 -a 0 -i 0 -k RTR 
- -t 1.000000000 -s 0 -d -1 -p AODV -e 48 -c 2 -a 0 -i 0 -k RTR
h -t 1.000000000 -s 0 -d -1 -p AODV -e 48 -c 2 -a 0 -i 0 -k RTR
+ -t 1.000000000 -s 2 -d -1 -p AODV -e 48 -c 2 -a 0 -i 0 -k RTR 
- -t 1.000000000 -s 2 -d -1 -p AODV -e 48 -c 2 -a 0 -i 0 -k RTR
h -t 1.000000000 -s 2 -d -1 -p AODV -e 48 -c 2 -a 0 -i 0 -k RTR
+ -t 1.014000000 -s 0 -d -1 -p AODV -e 100 -c 2 -a 0 -i 0 -k MAC 
- -t 1.014000000 -s 0 -d -1 -p AODV -e 100 -c 2 -a 0 -i 0 -k MAC
h -t 1.014000000 -s 0 -d -1 -p AODV -e 100 -c 2 -a 0 -i 0 -k MAC
r -t 1.014400777 -s 1 -d -1 -p AODV -e 48 -c 2 -a 0 -i 0 -k MAC
r -t 1.014400981 -s 2 -d -1 -p AODV -e 48 -c 2 -a 0 -i 0 -k MAC
r -t 1.014401578 -s 6 -d -1 -p AODV -e 48 -c 2 -a 0 -i 0 -k MAC
r -t 1.014425777 -s 1 -d -1 -p AODV -e 48 -c 2 -a 0 -i 0 -k RTR
+ -t 1.014567824 -s 1 -d -1 -p AODV -e 48 -c 2 -a 0 -i 0 -k RTR 
- -t 1.014567824 -s 1 -d -1 -p AODV -e 48 -c 2 -a 0 -i 0 -k RTR
h -t 1.014567824 -s 1 -d -1 -p AODV -e 48 -c 2 -a 0 -i 0 -k RTR
+ -t 1.026000000 -s 2 -d -1 -p AODV -e 100 -c 2 -a 0 -i 0 -k MAC 
- -t 1.026000000 -s 2 -d -1 -p AODV -e 100 -c 2 -a 0 -i 0 -k MAC
h -t 1.026000000 -s 2 -d -1 -p AODV -e 100 -c 2 -a 0 -i 0 -k MAC
r -t 1.026400536 -s 1 -d -1 -p AODV -e 48 -c 2 -a 0 -i 0 -k MAC
r -t 1.026400900 -s 3 -d -1 -p AODV -e 48 -c 2 -a 0 -i 0 -k MAC
r -t 1.026400936 -s 6 -d -1 -p AODV -e 48 -c 2 -a 0 -i 0 -k MAC
r -t 1.026400981 -s 0 -d -1 -p AODV -e 48 -c 2 -a 0 -i 0 -k MAC
r -t 1.026401239 -s 5 -d -1 -p AODV -e 48 -c 2 -a 0 -i 0 -k MAC
r -t 1.026401799 -s 4 -d -1 -p AODV -e 48 -c 2 -a 0 -i 0 -k MAC
r -t 1.026425536 -s 1 -d -1 -p AODV -e 48 -c 2 -a 0 -i 0 -k RTR
+ -t 1.027306762 -s 1 -d -1 -p AODV -e 48 -c 2 -a 0 -i 0 -k RTR 
- -t 1.027306762 -s 1 -d -1 -p AODV -e 48 -c 2 -a 0 -i 0 -k RTR
h -t 1.027306762 -s 1 -d -1 -p AODV -e 48 -c 2 -a 0 -i 0 -k RTR
+ -t 1.068000000 -s 1 -d -1 -p AODV -e 100 -c 2 -a 0 -i 0 -k MAC 
- -t 1.068000000 -s 1 -d -1 -p AODV -e 100 -c 2 -a 0 -i 0 -k MAC
h -t 1.068000000 -s 1 -d -1 -p AODV -e 100 -c 2 -a 0 -i 0 -k MAC
r -t 1.068400536 -s 2 -d -1 -p AODV -e 48 -c 2 -a 0 -i 0 -k MAC
r -t 1.068400777 -s 0 -d -1 -p AODV -e 48 -c 2 -a 0 -i 0 -k MAC
r -t 1.068400801 -s 6 -d -1 -p AODV -e 48 -c 2 -a 0 -i 0 -k MAC
r -t 1.068401292 -s 3 -d -1 -p AODV -e 48 -c 2 -a 0 -i 0 -k MAC
r -t 1.068401416 -s 5 -d -1 -p AODV -e 48 -c 2 -a 0 -i 0 -k MAC
r -t 1.068425536 -s 2 -d -1 -p AODV -e 48 -c 2 -a 0 -i 0 -k RTR
r -t 1.068425777 -s 0 -d -1 -p AODV -e 48 -c 2 -a 0 -i 0 -k RTR
r -t 1.068425801 -s 6 -d -1 -p AODV -e 48 -c 2 -a 0 -i 0 -k RTR
+ -t 1.072837269 -s 2 -d -1 -p AODV -e 48 -c 2 -a 0 -i 0 -k RTR 
- -t 1.072837269 -s 2 -d -1 -p AODV -e 48 -c 2 -a 0 -i 0 -k RTR
h -t 1.072837269 -s 2 -d -1 -p AODV -e 48 -c 2 -a 0 -i 0 -k RTR
+ -t 1.076417356 -s 6 -d -1 -p AODV -e 48 -c 2 -a 0 -i 0 -k RTR 
- -t 1.076417356 -s 6 -d -1 -p AODV -e 48 -c 2 -a 0 -i 0 -k RTR
h -t 1.076417356 -s 6 -d -1 -p AODV -e 48 -c 2 -a 0 -i 0 -k RTR
+ -t 1.116000000 -s 1 -d -1 -p AODV -e 100 -c 2 -a 0 -i 0 -k MAC 
- -t 1.116000000 -s 1 -d -1 -p AODV -e 100 -c 2 -a 0 -i 0 -k MAC
h -t 1.116000000 -s 1 -d -1 -p AODV -e 100 -c 2 -a 0 -i 0 -k MAC
r -t 1.116400536 -s 2 -d -1 -p AODV -e 48 -c 2 -a 0 -i 0 -k MAC
r -t 1.116400777 -s 0 -d -1 -p AODV -e 48 -c 2 -a 0 -i 0 -k MAC
r -t 1.116400801 -s 6 -d -1 -p AODV -e 48 -c 2 -a 0 -i 0 -k MAC
r -t 1.116401292 -s 3 -d -1 -p AODV -e 48 -c 2 -a 0 -i 0 -k MAC
r -t 1.116401416 -s 5 -d -1 -p AODV -e 48 -c 2 -a 0 -i 0 -k MAC
r -t 1.116425536 -s 2 -d -1 -p AODV -e 48 -c 2 -a 0 -i 0 -k RTR
r -t 1.116425777 -s 0 -d -1 -p AODV -e 48 -c 2 -a 0 -i 0 -k RTR
r -t 1.116425801 -s 6 -d -1 -p AODV -e 48 -c 2 -a 0 -i 0 -k RTR
+ -t 1.119555395 -s 0 -d -1 -p AODV -e 48 -c 2 -a 0 -i 0 -k RTR 
- -t 1.119555395 -s 0 -d -1 -p AODV -e 48 -c 2 -a 0 -i 0 -k RTR
h -t 1.119555395 -s 0 -d -1 -p AODV -e 48 -c 2 -a 0 -i 0 -k RTR
+ -t 1.122000000 -s 2 -d -1 -p AODV -e 100 -c 2 -a 0 -i 0 -k MAC 
- -t 1.122000000 -s 2 -d -1 -p AODV -e 100 -c 2 -a 0 -i 0 -k MAC
h -t 1.122000000 -s 2 -d -1 -p AODV -e 100 -c 2 -a 0 -i 0 -k MAC
r -t 1.122400536 -s 1 -d -1 -p AODV -e 48 -c 2 -a 0 -i 0 -k MAC
r -t 1.122400900 -s 3 -d -1 -p AODV -e 48 -c 2 -a 0 -i 0 -k MAC
r -t 1.122400936 -s 6 -d -1 -p AODV -e 48 -c 2 -a 0 -i 0 -k MAC
r -t 1.122400981 -s 0 -d -1 -p AODV -e 48 -c 2 -a 0 -i 0 -k MAC
r -t 1.122401239 -s 5 -d -1 -p AODV -e 48 -c 2 -a 0 -i 0 -k MAC
r -t 1.122401799 -s 4 -d -1 -p AODV -e 48 -c 2 -a 0 -i 0 -k MAC
r -t 1.122425536 -s 1 -d -1 -p AODV -e 48 -c 2 -a 0 -i 0 -k RTR
+ -t 1.124590562 -s 6 -d -1 -p AODV -e 48 -c 2 -a 0 -i 0 -k RTR 
- -t 1.124590562 -s 6 -d -1 -p AODV -e 48 -c 2 -a 0 -i 0 -k RTR
h -t 1.124590562 -s 6 -d -1 -p AODV -e 48 -c 2 -a 0 -i 0 -k RTR
+ -t 1.146000000 -s 6 -d -1 -p AODV -e 100 -c 2 -a 0 -i 0 -k MAC 
- -t 1.146000000 -s 6 -d -1 -p AODV -e 100 -c 2 -a 0 -i 0 -k MAC
h -t 1.146000000 -s 6 -d -1 -p AODV -e 100 -c 2 -a 0 -i 0 -k MAC
r -t 1.146400785 -s 5 -d -1 -p AODV -e 48 -c 2 -a 0 -i 0 -k MAC
r -t 1.146400801 -s 1 -d -1 -p AODV -e 48 -c 2 -a 0 -i 0 -k MAC
r -t 1.146400936 -s 2 -d -1 -p AODV -e 48 -c 2 -a 0 -i 0 -k MAC
r -t 1.146401024 -s 3 -d -1 -p AODV -e 48 -c 2 -a 0 -i 0 -k MAC
r -t 1.146401578 -s 0 -d -1 -p AODV -e 48 -c 2 -a 0 -i 0 -k MAC
r -t 1.146401597 -s 4 -d -1 -p AODV -e 48 -c 2 -a 0 -i 0 -k MAC
r -t 1.146425785 -s 5 -d -1 -p AODV -e 48 -c 2 -a 0 -i 0 -k RTR
r -t 1.146425801 -s 1 -d -1 -p AODV -e 48 -c 2 -a 0 -i 0 -k RTR
+ -t 1.148771803 -s 5 -d -1 -p AODV -e 48 -c 2 -a 0 -i 0 -k RTR 
- -t 1.148771803 -s 5 -d -1 -p AODV -e 48 -c 2 -a 0 -i 0 -k RTR
h -t 1.148771803 -s 5 -d -1 -p AODV -e 48 -c 2 -a 0 -i 0 -k RTR
+ -t 1.158000000 -s 0 -d -1 -p AODV -e 100 -c 2 -a 0 -i 0 -k MAC 
- -t 1.158000000 -s 0 -d -1 -p AODV -e 100 -c 2 -a 0 -i 0 -k MAC
h -t 1.158000000 -s 0 -d -1 -p AODV -e 100 -c 2 -a 0 -i 0 -k MAC
r -t 1.158400777 -s 1 -d -1 -p AODV -e 48 -c 2 -a 0 -i 0 -k MAC
r -t 1.158400981 -s 2 -d -1 -p AODV -e 48 -c 2 -a 0 -i 0 -k MAC
r -t 1.158401578 -s 6 -d -1 -p AODV -e 48 -c 2 -a 0 -i 0 -k MAC
r -t 1.158425777 -s 1 -d -1 -p AODV -e 48 -c 2 -a 0 -i 0 -k RTR
+ -t 1.188000000 -s 5 -d -1 -p AODV -e 100 -c 2 -a 0 -i 0 -k MAC 
- -t 1.188000000 -s 5 -d -1 -p AODV -e 100 -c 2 -a 0 -i 0 -k MAC
h -t 1.188000000 -s 5 -d -1 -p AODV -e 100 -c 2 -a 0 -i 0 -k MAC
r -t 1.188400620 -s 3 -d -1 -p AODV -e 48 -c 2 -a 0 -i 0 -k MAC
r -t 1.188400785 -s 6 -d -1 -p AODV -e 48 -c 2 -a 0 -i 0 -k MAC
r -t 1.188400818 -s 4 -d -1 -p AODV -e 48 -c 2 -a 0 -i 0 -k MAC
r -t 1.188401239 -s 2 -d -1 -p AODV -e 48 -c 2 -a 0 -i 0 -k MAC
r -t 1.188401416 -s 1 -d -1 -p AODV -e 48 -c 2 -a 0 -i 0 -k MAC
r -t 1.188425620 -s 3 -d -1 -p AODV -e 48 -c 2 -a 0 -i 0 -k RTR
+ -t 1.188425620 -s 3 -d 5 -p AODV -e 44 -c 2 -a 0 -i 0 -k RTR 
- -t 1.188425620 -s 3 -d 5 -p AODV -e 44 -c 2 -a 0 -i 0 -k RTR
h -t 1.188425620 -s 3 -d 5 -p AODV -e 44 -c 2 -a 0 -i 0 -k RTR
r -t 1.188425785 -s 6 -d -1 -p AODV -e 48 -c 2 -a 0 -i 0 -k RTR
r -t 1.188425818 -s 4 -d -1 -p AODV -e 48 -c 2 -a 0 -i 0 -k RTR
+ -t 1.194000000 -s 6 -d -1 -p AODV -e 100 -c 2 -a 0 -i 0 -k MAC 
- -t 1.194000000 -s 6 -d -1 -p AODV -e 100 -c 2 -a 0 -i 0 -k MAC
h -t 1.194000000 -s 6 -d -1 -p AODV -e 100 -c 2 -a 0 -i 0 -k MAC
r -t 1.194400785 -s 5 -d -1 -p AODV -e 48 -c 2 -a 0 -i 0 -k MAC
r -t 1.194400801 -s 1 -d -1 -p AODV -e 48 -c 2 -a 0 -i 0 -k MAC
r -t 1.194400936 -s 2 -d -1 -p AODV -e 48 -c 2 -a 0 -i 0 -k MAC
r -t 1.194401024 -s 3 -d -1 -p AODV -e 48 -c 2 -a 0 -i 0 -k MAC
r -t 1.194401578 -s 0 -d -1 -p AODV -e 48 -c 2 -a 0 -i 0 -k MAC
r -t 1.194401597 -s 4 -d -1 -p AODV -e 48 -c 2 -a 0 -i 0 -k MAC
r -t 1.194425785 -s 5 -d -1 -p AODV -e 48 -c 2 -a 0 -i 0 -k RTR
r -t 1.194425801 -s 1 -d -1 -p AODV -e 48 -c 2 -a 0 -i 0 -k RTR
+ -t 1.194814469 -s 4 -d -1 -p AODV -e 48 -c 2 -a 0 -i 0 -k RTR 
- -t 1.194814469 -s 4 -d -1 -p AODV -e 48 -c 2 -a 0 -i 0 -k RTR
h -t 1.194814469 -s 4 -d -1 -p AODV -e 48 -c 2 -a 0 -i 0 -k RTR
+ -t 1.197516576 -s 5 -d -1 -p AODV -e 48 -c 2 -a 0 -i 0 -k RTR 
- -t 1.197516576 -s 5 -d -1 -p AODV -e 48 -c 2 -a 0 -i 0 -k RTR
h -t 1.197516576 -s 5 -d -1 -p AODV -e 48 -c 2 -a 0 -i 0 -k RTR
+ -t 1.224000000 -s 3 -d -1 -p ARP -e 80 -c 2 -a 0 -i 0 -k MAC 
- -t 1.224000000 -s 3 -d -1 -p ARP -e 80 -c 2 -a 0 -i 0 -k MAC
h -t 1.224000000 -s 3 -d -1 -p ARP -e 80 -c 2 -a 0 -i 0 -k MAC
r -t 1.224320620 -s 5 -d -1 -p ARP -e 28 -c 2 -a 0 -i 0 -k MAC
r -t 1.224320900 -s 2 -d -1 -p ARP -e 28 -c 2 -a 0 -i 0 -k MAC
r -t 1.224320906 -s 4 -d -1 -p ARP -e 28 -c 2 -a 0 -i 0 -k MAC
r -t 1.224321024 -s 6 -d -1 -p ARP -e 28 -c 2 -a 0 -i 0 -k MAC
r -t 1.224321292 -s 1 -d -1 -p ARP -e 28 -c 2 -a 0 -i 0 -k MAC
+ -t 1.230000000 -s 4 -d -1 -p AODV -e 100 -c 2 -a 0 -i 0 -k MAC 
- -t 1.230000000 -s 4 -d -1 -p AODV -e 100 -c 2 -a 0 -i 0 -k MAC
h -t 1.230000000 -s 4 -d -1 -p AODV -e 100 -c 2 -a 0 -i 0 -k MAC
r -t 1.230400818 -s 5 -d -1 -p AODV -e 48 -c 2 -a 0 -i 0 -k MAC
r -t 1.230400906 -s 3 -d -1 -p AODV -e 48 -c 2 -a 0 -i 0 -k MAC
r -t 1.230401597 -s 6 -d -1 -p AODV -e 48 -c 2 -a 0 -i 0 -k MAC
r -t 1.230401799 -s 2 -d -1 -p AODV -e 48 -c 2 -a 0 -i 0 -k MAC
r -t 1.230425818 -s 5 -d -1 -p AODV -e 48 -c 2 -a 0 -i 0 -k RTR
+ -t 1.236000000 -s 5 -d -1 -p AODV -e 100 -c 2 -a 0 -i 0 -k MAC 
- -t 1.236000000 -s 5 -d -1 -p AODV -e 100 -c 2 -a 0 -i 0 -k MAC
h -t 1.236000000 -s 5 -d -1 -p AODV -e 100 -c 2 -a 0 -i 0 -k MAC
r -t 1.236400620 -s 3 -d -1 -p AODV -e 48 -c 2 -a 0 -i 0 -k MAC
r -t 1.236400785 -s 6 -d -1 -p AODV -e 48 -c 2 -a 0 -i 0 -k MAC
r -t 1.236400818 -s 4 -d -1 -p AODV -e 48 -c 2 -a 0 -i 0 -k MAC
r -t 1.236401239 -s 2 -d -1 -p AODV -e 48 -c 2 -a 0 -i 0 -k MAC
r -t 1.236401416 -s 1 -d -1 -p AODV -e 48 -c 2 -a 0 -i 0 -k MAC
r -t 1.236425620 -s 3 -d -1 -p AODV -e 48 -c 2 -a 0 -i 0 -k RTR
r -t 1.236425785 -s 6 -d -1 -p AODV -e 48 -c 2 -a 0 -i 0 -k RTR
r -t 1.236425818 -s 4 -d -1 -p AODV -e 48 -c 2 -a 0 -i 0 -k RTR
+ -t 1.236425818 -s 4 -d 5 -p AODV -e 44 -c 2 -a 0 -i 0 -k RTR 
- -t 1.236425818 -s 4 -d 5 -p AODV -e 44 -c 2 -a 0 -i 0 -k RTR
h -t 1.236425818 -s 4 -d 5 -p AODV -e 44 -c 2 -a 0 -i 0 -k RTR
+ -t 1.244788855 -s 3 -d -1 -p AODV -e 48 -c 2 -a 0 -i 0 -k RTR 
- -t 1.244788855 -s 3 -d -1 -p AODV -e 48 -c 2 -a 0 -i 0 -k RTR
h -t 1.244788855 -s 3 -d -1 -p AODV -e 48 -c 2 -a 0 -i 0 -k RTR
+ -t 1.272000000 -s 3 -d -1 -p AODV -e 100 -c 2 -a 0 -i 0 -k MAC 
- -t 1.272000000 -s 3 -d -1 -p AODV -e 100 -c 2 -a 0 -i 0 -k MAC
h -t 1.272000000 -s 3 -d -1 -p AODV -e 100 -c 2 -a 0 -i 0 -k MAC
r -t 1.272400620 -s 5 -d -1 -p AODV -e 48 -c 2 -a 0 -i 0 -k MAC
r -t 1.272400900 -s 2 -d -1 -p AODV -e 48 -c 2 -a 0 -i 0 -k MAC
r -t 1.272400906 -s 4 -d -1 -p AODV -e 48 -c 2 -a 0 -i 0 -k MAC
r -t 1.272401024 -s 6 -d -1 -p AODV -e 48 -c 2 -a 0 -i 0 -k MAC
r -t 1.272401292 -s 1 -d -1 -p AODV -e 48 -c 2 -a 0 -i 0 -k MAC
r -t 1.272425620 -s 5 -d -1 -p AODV -e 48 -c 2 -a 0 -i 0 -k RTR
+ -t 1.278000000 -s 4 -d -1 -p ARP -e 80 -c 2 -a 0 -i 0 -k MAC 
- -t 1.278000000 -s 4 -d -1 -p ARP -e 80 -c 2 -a 0 -i 0 -k MAC
h -t 1.278000000 -s 4 -d -1 -p ARP -e 80 -c 2 -a 0 -i 0 -k MAC
r -t 1.278320818 -s 5 -d -1 -p ARP -e 28 -c 2 -a 0 -i 0 -k MAC
r -t 1.278320906 -s 3 -d -1 -p ARP -e 28 -c 2 -a 0 -i 0 -k MAC
r -t 1.278321597 -s 6 -d -1 -p ARP -e 28 -c 2 -a 0 -i 0 -k MAC
r -t 1.278321799 -s 2 -d -1 -p ARP -e 28 -c 2 -a 0 -i 0 -k MAC
+ -t 1.284000000 -s 5 -d -1 -p ARP -e 80 -c 2 -a 0 -i 0 -k MAC 
- -t 1.284000000 -s 5 -d -1 -p ARP -e 80 -c 2 -a 0 -i 0 -k MAC
h -t 1.284000000 -s 5 -d -1 -p ARP -e 80 -c 2 -a 0 -i 0 -k MAC
r -t 1.284320620 -s 3 -d -1 -p ARP -e 28 -c 2 -a 0 -i 0 -k MAC
+ -t 1.320000000 -s 3 -d 5 -p AODV -e 96 -c 2 -a 0 -i 0 -k MAC 
- -t 1.320000000 -s 3 -d 5 -p AODV -e 96 -c 2 -a 0 -i 0 -k MAC
h -t 1.320000000 -s 3 -d 5 -p AODV -e 96 -c 2 -a 0 -i 0 -k MAC
r -t 1.320384620 -s 5 -d 5 -p AODV -e 44 -c 2 -a 0 -i 0 -k MAC
+ -t 1.320409620 -s 5 -d 6 -p AODV -e 44 -c 2 -a 0 -i 0 -k RTR 
- -t 1.320409620 -s 5 -d 6 -p AODV -e 44 -c 2 -a 0 -i 0 -k RTR
h -t 1.320409620 -s 5 -d 6 -p AODV -e 44 -c 2 -a 0 -i 0 -k RTR
+ -t 1.332000000 -s 5 -d -1 -p ARP -e 80 -c 2 -a 0 -i 0 -k MAC 
- -t 1.332000000 -s 5 -d -1 -p ARP -e 80 -c 2 -a 0 -i 0 -k MAC
h -t 1.332000000 -s 5 -d -1 -p ARP -e 80 -c 2 -a 0 -i 0 -k MAC
r -t 1.332320818 -s 4 -d -1 -p ARP -e 28 -c 2 -a 0 -i 0 -k MAC
+ -t 1.374000000 -s 4 -d 5 -p AODV -e 96 -c 2 -a 0 -i 0 -k MAC 
- -t 1.374000000 -s 4 -d 5 -p AODV -e 96 -c 2 -a 0 -i 0 -k MAC
h -t 1.374000000 -s 4 -d 5 -p AODV -e 96 -c 2 -a 0 -i 0 -k MAC
r -t 1.374384818 -s 5 -d 5 -p AODV -e 44 -c 2 -a 0 -i 0 -k MAC
+ -t 1.374409818 -s 5 -d 6 -p AODV -e 44 -c 2 -a 0 -i 0 -k RTR 
- -t 1.374409818 -s 5 -d 6 -p AODV -e 44 -c 2 -a 0 -i 0 -k RTR
h -t 1.374409818 -s 5 -d 6 -p AODV -e 44 -c 2 -a 0 -i 0 -k RTR
d -t 1.374409818 -s 5 -d 6 -p AODV -e 44 -c 2 -a 0 -i 0 -k IFQ
+ -t 1.380000000 -s 5 -d -1 -p ARP -e 80 -c 2 -a 0 -i 0 -k MAC 
- -t 1.380000000 -s 5 -d -1 -p ARP -e 80 -c 2 -a 0 -i 0 -k MAC
h -t 1.380000000 -s 5 -d -1 -p ARP -e 80 -c 2 -a 0 -i 0 -k MAC
r -t 1.380320620 -s 3 -d -1 -p ARP -e 28 -c 2 -a 0 -i 0 -k MAC
r -t 1.380320785 -s 6 -d -1 -p ARP -e 28 -c 2 -a 0 -i 0 -k MAC
r -t 1.380320818 -s 4 -d -1 -p ARP -e 28 -c 2 -a 0 -i 0 -k MAC
r -t 1.380321239 -s 2 -d -1 -p ARP -e 28 -c 2 -a 0 -i 0 -k MAC
r -t 1.380321416 -s 1 -d -1 -p ARP -e 28 -c 2 -a 0 -i 0 -k MAC
+ -t 1.428000000 -s 5 -d -1 -p ARP -e 80 -c 2 -a 0 -i 0 -k MAC 
- -t 1.428000000 -s 5 -d -1 -p ARP -e 80 -c 2 -a 0 -i 0 -k MAC
h -t 1.428000000 -s 5 -d -1 -p ARP -e 80 -c 2 -a 0 -i 0 -k MAC
r -t 1.428320620 -s 3 -d -1 -p ARP -e 28 -c 2 -a 0 -i 0 -k MAC
r -t 1.428320785 -s 6 -d -1 -p ARP -e 28 -c 2 -a 0 -i 0 -k MAC
r -t 1.428320818 -s 4 -d -1 -p ARP -e 28 -c 2 -a 0 -i 0 -k MAC
r -t 1.428321239 -s 2 -d -1 -p ARP -e 28 -c 2 -a 0 -i 0 -k MAC
r -t 1.428321416 -s 1 -d -1 -p ARP -e 28 -c 2 -a 0 -i 0 -k MAC
+ -t 1.434000000 -s 6 -d -1 -p ARP -e 80 -c 2 -a 0 -i 0 -k MAC 
- -t 1.434000000 -s 6 -d -1 -p ARP -e 80 -c 2 -a 0 -i 0 -k MAC
h -t 1.434000000 -s 6 -d -1 -p ARP -e 80 -c 2 -a 0 -i 0 -k MAC
r -t 1.434320785 -s 5 -d -1 -p ARP -e 28 -c 2 -a 0 -i 0 -k MAC
+ -t 1.476000000 -s 5 -d 6 -p AODV -e 96 -c 2 -a 0 -i 0 -k MAC 
- -t 1.476000000 -s 5 -d 6 -p AODV -e 96 -c 2 -a 0 -i 0 -k MAC
h -t 1.476000000 -s 5 -d 6 -p AODV -e 96 -c 2 -a 0 -i 0 -k MAC
r -t 1.476384785 -s 6 -d 6 -p AODV -e 44 -c 2 -a 0 -i 0 -k MAC
+ -t 1.476409785 -s 6 -d 1 -p AODV -e 44 -c 2 -a 0 -i 0 -k RTR 
- -t 1.476409785 -s 6 -d 1 -p AODV -e 44 -c 2 -a 0 -i 0 -k RTR
h -t 1.476409785 -s 6 -d 1 -p AODV -e 44 -c 2 -a 0 -i 0 -k RTR
+ -t 1.482000000 -s 6 -d -1 -p ARP -e 80 -c 2 -a 0 -i 0 -k MAC 
- -t 1.482000000 -s 6 -d -1 -p ARP -e 80 -c 2 -a 0 -i 0 -k MAC
h -t 1.482000000 -s 6 -d -1 -p ARP -e 80 -c 2 -a 0 -i 0 -k MAC
r -t 1.482320785 -s 5 -d -1 -p ARP -e 28 -c 2 -a 0 -i 0 -k MAC
+ -t 1.530000000 -s 6 -d -1 -p ARP -e 80 -c 2 -a 0 -i 0 -k MAC 
- -t 1.530000000 -s 6 -d -1 -p ARP -e 80 -c 2 -a 0 -i 0 -k MAC
h -t 1.530000000 -s 6 -d -1 -p ARP -e 80 -c 2 -a 0 -i 0 -k MAC
r -t 1.530320785 -s 5 -d -1 -p ARP -e 28 -c 2 -a 0 -i 0 -k MAC
r -t 1.530320801 -s 1 -d -1 -p ARP -e 28 -c 2 -a 0 -i 0 -k MAC
r -t 1.530320936 -s 2 -d -1 -p ARP -e 28 -c 2 -a 0 -i 0 -k MAC
r -t 1.530321024 -s 3 -d -1 -p ARP -e 28 -c 2 -a 0 -i 0 -k MAC
r -t 1.530321578 -s 0 -d -1 -p ARP -e 28 -c 2 -a 0 -i 0 -k MAC
r -t 1.530321597 -s 4 -d -1 -p ARP -e 28 -c 2 -a 0 -i 0 -k MAC
+ -t 1.548000000 -s 1 -d -1 -p ARP -e 80 -c 2 -a 0 -i 0 -k MAC 
- -t 1.548000000 -s 1 -d -1 -p ARP -e 80 -c 2 -a 0 -i 0 -k MAC
h -t 1.548000000 -s 1 -d -1 -p ARP -e 80 -c 2 -a 0 -i 0 -k MAC
r -t 1.548320801 -s 6 -d -1 -p ARP -e 28 -c 2 -a 0 -i 0 -k MAC
+ -t 1.626000000 -s 6 -d 1 -p AODV -e 96 -c 2 -a 0 -i 0 -k MAC 
- -t 1.626000000 -s 6 -d 1 -p AODV -e 96 -c 2 -a 0 -i 0 -k MAC
h -t 1.626000000 -s 6 -d 1 -p AODV -e 96 -c 2 -a 0 -i 0 -k MAC
r -t 1.626384801 -s 1 -d 1 -p AODV -e 44 -c 2 -a 0 -i 0 -k MAC
+ -t 1.626409801 -s 1 -d 2 -p AODV -e 44 -c 2 -a 0 -i 0 -k RTR 
- -t 1.626409801 -s 1 -d 2 -p AODV -e 44 -c 2 -a 0 -i 0 -k RTR
h -t 1.626409801 -s 1 -d 2 -p AODV -e 44 -c 2 -a 0 -i 0 -k RTR
+ -t 1.644000000 -s 1 -d -1 -p ARP -e 80 -c 2 -a 0 -i 0 -k MAC 
- -t 1.644000000 -s 1 -d -1 -p ARP -e 80 -c 2 -a 0 -i 0 -k MAC
h -t 1.644000000 -s 1 -d -1 -p ARP -e 80 -c 2 -a 0 -i 0 -k MAC
r -t 1.644320536 -s 2 -d -1 -p ARP -e 28 -c 2 -a 0 -i 0 -k MAC
r -t 1.644320777 -s 0 -d -1 -p ARP -e 28 -c 2 -a 0 -i 0 -k MAC
r -t 1.644320801 -s 6 -d -1 -p ARP -e 28 -c 2 -a 0 -i 0 -k MAC
r -t 1.644321292 -s 3 -d -1 -p ARP -e 28 -c 2 -a 0 -i 0 -k MAC
r -t 1.644321416 -s 5 -d -1 -p ARP -e 28 -c 2 -a 0 -i 0 -k MAC
+ -t 1.698000000 -s 2 -d -1 -p ARP -e 80 -c 2 -a 0 -i 0 -k MAC 
- -t 1.698000000 -s 2 -d -1 -p ARP -e 80 -c 2 -a 0 -i 0 -k MAC
h -t 1.698000000 -s 2 -d -1 -p ARP -e 80 -c 2 -a 0 -i 0 -k MAC
r -t 1.698320536 -s 1 -d -1 -p ARP -e 28 -c 2 -a 0 -i 0 -k MAC
+ -t 1.740000000 -s 1 -d 2 -p AODV -e 96 -c 2 -a 0 -i 0 -k MAC 
- -t 1.740000000 -s 1 -d 2 -p AODV -e 96 -c 2 -a 0 -i 0 -k MAC
h -t 1.740000000 -s 1 -d 2 -p AODV -e 96 -c 2 -a 0 -i 0 -k MAC
r -t 1.740384536 -s 2 -d 2 -p AODV -e 44 -c 2 -a 0 -i 0 -k MAC
+ -t 1.740409536 -s 2 -d 1 -p tcp -e 40 -c 2 -a 0 -i 1 -k RTR 
- -t 1.740409536 -s 2 -d 1 -p tcp -e 40 -c 2 -a 0 -i 1 -k RTR
h -t 1.740409536 -s 2 -d 1 -p tcp -e 40 -c 2 -a 0 -i 1 -k RTR
+ -t 1.794000000 -s 2 -d 1 -p tcp -e 92 -c 2 -a 0 -i 1 -k MAC 
- -t 1.794000000 -s 2 -d 1 -p tcp -e 92 -c 2 -a 0 -i 1 -k MAC
h -t 1.794000000 -s 2 -d 1 -p tcp -e 92 -c 2 -a 0 -i 1 -k MAC
r -t 1.794368536 -s 1 -d 1 -p tcp -e 40 -c 2 -a 0 -i 1 -k MAC
+ -t 1.794393536 -s 1 -d 6 -p tcp -e 40 -c 2 -a 0 -i 1 -k RTR 
- -t 1.794393536 -s 1 -d 6 -p tcp -e 40 -c 2 -a 0 -i 1 -k RTR
h -t 1.794393536 -s 1 -d 6 -p tcp -e 40 -c 2 -a 0 -i 1 -k RTR
+ -t 1.836000000 -s 1 -d 6 -p tcp -e 92 -c 2 -a 0 -i 1 -k MAC 
- -t 1.836000000 -s 1 -d 6 -p tcp -e 92 -c 2 -a 0 -i 1 -k MAC
h -t 1.836000000 -s 1 -d 6 -p tcp -e 92 -c 2 -a 0 -i 1 -k MAC
r -t 1.836368801 -s 6 -d 6 -p tcp -e 40 -c 2 -a 0 -i 1 -k MAC
+ -t 1.836393801 -s 6 -d 5 -p tcp -e 40 -c 2 -a 0 -i 1 -k RTR 
- -t 1.836393801 -s 6 -d 5 -p tcp -e 40 -c 2 -a 0 -i 1 -k RTR
h -t 1.836393801 -s 6 -d 5 -p tcp -e 40 -c 2 -a 0 -i 1 -k RTR
+ -t 1.914000000 -s 6 -d 5 -p tcp -e 92 -c 2 -a 0 -i 1 -k MAC 
- -t 1.914000000 -s 6 -d 5 -p tcp -e 92 -c 2 -a 0 -i 1 -k MAC
h -t 1.914000000 -s 6 -d 5 -p tcp -e 92 -c 2 -a 0 -i 1 -k MAC
r -t 1.914368785 -s 5 -d 5 -p tcp -e 40 -c 2 -a 0 -i 1 -k MAC
+ -t 1.914393785 -s 5 -d 4 -p tcp -e 40 -c 2 -a 0 -i 1 -k RTR 
- -t 1.914393785 -s 5 -d 4 -p tcp -e 40 -c 2 -a 0 -i 1 -k RTR
h -t 1.914393785 -s 5 -d 4 -p tcp -e 40 -c 2 -a 0 -i 1 -k RTR
+ -t 1.956000000 -s 5 -d 4 -p tcp -e 92 -c 2 -a 0 -i 1 -k MAC 
- -t 1.956000000 -s 5 -d 4 -p tcp -e 92 -c 2 -a 0 -i 1 -k MAC
h -t 1.956000000 -s 5 -d 4 -p tcp -e 92 -c 2 -a 0 -i 1 -k MAC
r -t 1.956368818 -s 4 -d 4 -p tcp -e 40 -c 2 -a 0 -i 1 -k MAC
r -t 1.956393818 -s 4 -d 4 -p tcp -e 40 -c 2 -a 0 -i 1 -k AGT
+ -t 1.956393818 -s 4 -d -1 -p ack -e 40 -c 2 -a 0 -i 2 -k AGT 
- -t 1.956393818 -s 4 -d -1 -p ack -e 40 -c 2 -a 0 -i 2 -k AGT
h -t 1.956393818 -s 4 -d -1 -p ack -e 40 -c 2 -a 0 -i 2 -k AGT
+ -t 1.956393818 -s 4 -d 5 -p ack -e 40 -c 2 -a 0 -i 2 -k RTR 
- -t 1.956393818 -s 4 -d 5 -p ack -e 40 -c 2 -a 0 -i 2 -k RTR
h -t 1.956393818 -s 4 -d 5 -p ack -e 40 -c 2 -a 0 -i 2 -k RTR
+ -t 1.998000000 -s 4 -d 5 -p ack -e 92 -c 2 -a 0 -i 2 -k MAC 
- -t 1.998000000 -s 4 -d 5 -p ack -e 92 -c 2 -a 0 -i 2 -k MAC
h -t 1.998000000 -s 4 -d 5 -p ack -e 92 -c 2 -a 0 -i 2 -k MAC
r -t 1.998368818 -s 5 -d 5 -p ack -e 40 -c 2 -a 0 -i 2 -k MAC
+ -t 1.998393818 -s 5 -d 6 -p ack -e 40 -c 2 -a 0 -i 2 -k RTR 
- -t 1.998393818 -s 5 -d 6 -p ack -e 40 -c 2 -a 0 -i 2 -k RTR
h -t 1.998393818 -s 5 -d 6 -p ack -e 40 -c 2 -a 0 -i 2 -k RTR
+ -t 2.052000000 -s 5 -d 6 -p ack -e 92 -c 2 -a 0 -i 2 -k MAC 
- -t 2.052000000 -s 5 -d 6 -p ack -e 92 -c 2 -a 0 -i 2 -k MAC
h -t 2.052000000 -s 5 -d 6 -p ack -e 92 -c 2 -a 0 -i 2 -k MAC
r -t 2.052368785 -s 6 -d 6 -p ack -e 40 -c 2 -a 0 -i 2 -k MAC
+ -t 2.052393785 -s 6 -d 1 -p ack -e 40 -c 2 -a 0 -i 2 -k RTR 
- -t 2.052393785 -s 6 -d 1 -p ack -e 40 -c 2 -a 0 -i 2 -k RTR
h -t 2.052393785 -s 6 -d 1 -p ack -e 40 -c 2 -a 0 -i 2 -k RTR
+ -t 2.106000000 -s 6 -d 1 -p ack -e 92 -c 2 -a 0 -i 2 -k MAC 
- -t 2.106000000 -s 6 -d 1 -p ack -e 92 -c 2 -a 0 -i 2 -k MAC
h -t 2.106000000 -s 6 -d 1 -p ack -e 92 -c 2 -a 0 -i 2 -k MAC
r -t 2.106368801 -s 1 -d 1 -p ack -e 40 -c 2 -a 0 -i 2 -k MAC
+ -t 2.106393801 -s 1 -d 2 -p ack -e 40 -c 2 -a 0 -i 2 -k RTR 
- -t 2.106393801 -s 1 -d 2 -p ack -e 40 -c 2 -a 0 -i 2 -k RTR
h -t 2.106393801 -s 1 -d 2 -p ack -e 40 -c 2 -a 0 -i 2 -k RTR
+ -t 2.124000000 -s 1 -d 2 -p ack -e 92 -c 2 -a 0 -i 2 -k MAC 
- -t 2.124000000 -s 1 -d 2 -p ack -e 92 -c 2 -a 0 -i 2 -k MAC
h -t 2.124000000 -s 1 -d 2 -p ack -e 92 -c 2 -a 0 -i 2 -k MAC
r -t 2.124368536 -s 2 -d 2 -p ack -e 40 -c 2 -a 0 -i 2 -k MAC
r -t 2.124393536 -s 2 -d 2 -p ack -e 40 -c 2 -a 0 -i 2 -k AGT
n -t 3.000000 -s 0 -x 402.000000 -y 232.000000 -U 18.718004 -V 7.045306 -T 47.975202
+ -t 3.000000000 -s 0 -d -1 -p AODV -e 48 -c 2 -a 0 -i 0 -k RTR 
- -t 3.000000000 -s 0 -d -1 -p AODV -e 48 -c 2 -a 0 -i 0 -k RTR
h -t 3.000000000 -s 0 -d -1 -p AODV -e 48 -c 2 -a 0 -i 0 -k RTR
+ -t 3.030000000 -s 0 -d -1 -p AODV -e 100 -c 2 -a 0 -i 0 -k MAC 
- -t 3.030000000 -s 0 -d -1 -p AODV -e 100 -c 2 -a 0 -i 0 -k MAC
h -t 3.030000000 -s 0 -d -1 -p AODV -e 100 -c 2 -a 0 -i 0 -k MAC
r -t 3.030400775 -s 1 -d -1 -p AODV -e 48 -c 2 -a 0 -i 0 -k MAC
r -t 3.030400979 -s 2 -d -1 -p AODV -e 48 -c 2 -a 0 -i 0 -k MAC
r -t 3.030401576 -s 6 -d -1 -p AODV -e 48 -c 2 -a 0 -i 0 -k MAC
r -t 3.030425775 -s 1 -d -1 -p AODV -e 48 -c 2 -a 0 -i 0 -k RTR
+ -t 3.032067229 -s 1 -d -1 -p AODV -e 48 -c 2 -a 0 -i 0 -k RTR 
- -t 3.032067229 -s 1 -d -1 -p AODV -e 48 -c 2 -a 0 -i 0 -k RTR
h -t 3.032067229 -s 1 -d -1 -p AODV -e 48 -c 2 -a 0 -i 0 -k RTR
+ -t 3.084000000 -s 1 -d -1 -p AODV -e 100 -c 2 -a 0 -i 0 -k MAC 
- -t 3.084000000 -s 1 -d -1 -p AODV -e 100 -c 2 -a 0 -i 0 -k MAC
h -t 3.084000000 -s 1 -d -1 -p AODV -e 100 -c 2 -a 0 -i 0 -k MAC
r -t 3.084400536 -s 2 -d -1 -p AODV -e 48 -c 2 -a 0 -i 0 -k MAC
r -t 3.084400771 -s 0 -d -1 -p AODV -e 48 -c 2 -a 0 -i 0 -k MAC
r -t 3.084400801 -s 6 -d -1 -p AODV -e 48 -c 2 -a 0 -i 0 -k MAC
r -t 3.084401292 -s 3 -d -1 -p AODV -e 48 -c 2 -a 0 -i 0 -k MAC
r -t 3.084401416 -s 5 -d -1 -p AODV -e 48 -c 2 -a 0 -i 0 -k MAC
r -t 3.084425536 -s 2 -d -1 -p AODV -e 48 -c 2 -a 0 -i 0 -k RTR
r -t 3.084425771 -s 0 -d -1 -p AODV -e 48 -c 2 -a 0 -i 0 -k RTR
r -t 3.084425801 -s 6 -d -1 -p AODV -e 48 -c 2 -a 0 -i 0 -k RTR
+ -t 3.084853481 -s 2 -d -1 -p AODV -e 48 -c 2 -a 0 -i 0 -k RTR 
- -t 3.084853481 -s 2 -d -1 -p AODV -e 48 -c 2 -a 0 -i 0 -k RTR
h -t 3.084853481 -s 2 -d -1 -p AODV -e 48 -c 2 -a 0 -i 0 -k RTR
+ -t 3.090826478 -s 6 -d -1 -p AODV -e 48 -c 2 -a 0 -i 0 -k RTR 
- -t 3.090826478 -s 6 -d -1 -p AODV -e 48 -c 2 -a 0 -i 0 -k RTR
h -t 3.090826478 -s 6 -d -1 -p AODV -e 48 -c 2 -a 0 -i 0 -k RTR
+ -t 3.138000000 -s 2 -d -1 -p AODV -e 100 -c 2 -a 0 -i 0 -k MAC 
- -t 3.138000000 -s 2 -d -1 -p AODV -e 100 -c 2 -a 0 -i 0 -k MAC
h -t 3.138000000 -s 2 -d -1 -p AODV -e 100 -c 2 -a 0 -i 0 -k MAC
r -t 3.138400536 -s 1 -d -1 -p AODV -e 48 -c 2 -a 0 -i 0 -k MAC
r -t 3.138400900 -s 3 -d -1 -p AODV -e 48 -c 2 -a 0 -i 0 -k MAC
r -t 3.138400936 -s 6 -d -1 -p AODV -e 48 -c 2 -a 0 -i 0 -k MAC
r -t 3.138400973 -s 0 -d -1 -p AODV -e 48 -c 2 -a 0 -i 0 -k MAC
r -t 3.138401239 -s 5 -d -1 -p AODV -e 48 -c 2 -a 0 -i 0 -k MAC
r -t 3.138401799 -s 4 -d -1 -p AODV -e 48 -c 2 -a 0 -i 0 -k MAC
r -t 3.138425536 -s 1 -d -1 -p AODV -e 48 -c 2 -a 0 -i 0 -k RTR
+ -t 3.162000000 -s 6 -d -1 -p AODV -e 100 -c 2 -a 0 -i 0 -k MAC 
- -t 3.162000000 -s 6 -d -1 -p AODV -e 100 -c 2 -a 0 -i 0 -k MAC
h -t 3.162000000 -s 6 -d -1 -p AODV -e 100 -c 2 -a 0 -i 0 -k MAC
r -t 3.162400785 -s 5 -d -1 -p AODV -e 48 -c 2 -a 0 -i 0 -k MAC
r -t 3.162400801 -s 1 -d -1 -p AODV -e 48 -c 2 -a 0 -i 0 -k MAC
r -t 3.162400936 -s 2 -d -1 -p AODV -e 48 -c 2 -a 0 -i 0 -k MAC
r -t 3.162401024 -s 3 -d -1 -p AODV -e 48 -c 2 -a 0 -i 0 -k MAC
r -t 3.162401567 -s 0 -d -1 -p AODV -e 48 -c 2 -a 0 -i 0 -k MAC
r -t 3.162401597 -s 4 -d -1 -p AODV -e 48 -c 2 -a 0 -i 0 -k MAC
r -t 3.162425785 -s 5 -d -1 -p AODV -e 48 -c 2 -a 0 -i 0 -k RTR
+ -t 3.162425785 -s 5 -d 6 -p AODV -e 44 -c 2 -a 0 -i 0 -k RTR 
- -t 3.162425785 -s 5 -d 6 -p AODV -e 44 -c 2 -a 0 -i 0 -k RTR
h -t 3.162425785 -s 5 -d 6 -p AODV -e 44 -c 2 -a 0 -i 0 -k RTR
r -t 3.162425801 -s 1 -d -1 -p AODV -e 48 -c 2 -a 0 -i 0 -k RTR
+ -t 3.204000000 -s 5 -d 6 -p AODV -e 96 -c 2 -a 0 -i 0 -k MAC 
- -t 3.204000000 -s 5 -d 6 -p AODV -e 96 -c 2 -a 0 -i 0 -k MAC
h -t 3.204000000 -s 5 -d 6 -p AODV -e 96 -c 2 -a 0 -i 0 -k MAC
r -t 3.204384785 -s 6 -d 6 -p AODV -e 44 -c 2 -a 0 -i 0 -k MAC
+ -t 3.204409785 -s 6 -d 1 -p AODV -e 44 -c 2 -a 0 -i 0 -k RTR 
- -t 3.204409785 -s 6 -d 1 -p AODV -e 44 -c 2 -a 0 -i 0 -k RTR
h -t 3.204409785 -s 6 -d 1 -p AODV -e 44 -c 2 -a 0 -i 0 -k RTR
+ -t 3.258000000 -s 6 -d 1 -p AODV -e 96 -c 2 -a 0 -i 0 -k MAC 
- -t 3.258000000 -s 6 -d 1 -p AODV -e 96 -c 2 -a 0 -i 0 -k MAC
h -t 3.258000000 -s 6 -d 1 -p AODV -e 96 -c 2 -a 0 -i 0 -k MAC
r -t 3.258384801 -s 1 -d 1 -p AODV -e 44 -c 2 -a 0 -i 0 -k MAC
+ -t 3.258409801 -s 1 -d 0 -p AODV -e 44 -c 2 -a 0 -i 0 -k RTR 
- -t 3.258409801 -s 1 -d 0 -p AODV -e 44 -c 2 -a 0 -i 0 -k RTR
h -t 3.258409801 -s 1 -d 0 -p AODV -e 44 -c 2 -a 0 -i 0 -k RTR
+ -t 3.276000000 -s 1 -d -1 -p ARP -e 80 -c 2 -a 0 -i 0 -k MAC 
- -t 3.276000000 -s 1 -d -1 -p ARP -e 80 -c 2 -a 0 -i 0 -k MAC
h -t 3.276000000 -s 1 -d -1 -p ARP -e 80 -c 2 -a 0 -i 0 -k MAC
r -t 3.276320536 -s 2 -d -1 -p ARP -e 28 -c 2 -a 0 -i 0 -k MAC
r -t 3.276320759 -s 0 -d -1 -p ARP -e 28 -c 2 -a 0 -i 0 -k MAC
r -t 3.276320801 -s 6 -d -1 -p ARP -e 28 -c 2 -a 0 -i 0 -k MAC
r -t 3.276321292 -s 3 -d -1 -p ARP -e 28 -c 2 -a 0 -i 0 -k MAC
r -t 3.276321416 -s 5 -d -1 -p ARP -e 28 -c 2 -a 0 -i 0 -k MAC
+ -t 3.318000000 -s 0 -d -1 -p ARP -e 80 -c 2 -a 0 -i 0 -k MAC 
- -t 3.318000000 -s 0 -d -1 -p ARP -e 80 -c 2 -a 0 -i 0 -k MAC
h -t 3.318000000 -s 0 -d -1 -p ARP -e 80 -c 2 -a 0 -i 0 -k MAC
r -t 3.318320756 -s 1 -d -1 -p ARP -e 28 -c 2 -a 0 -i 0 -k MAC
+ -t 3.372000000 -s 1 -d 0 -p AODV -e 96 -c 2 -a 0 -i 0 -k MAC 
- -t 3.372000000 -s 1 -d 0 -p AODV -e 96 -c 2 -a 0 -i 0 -k MAC
h -t 3.372000000 -s 1 -d 0 -p AODV -e 96 -c 2 -a 0 -i 0 -k MAC
r -t 3.372384752 -s 0 -d 0 -p AODV -e 44 -c 2 -a 0 -i 0 -k MAC
+ -t 3.372409752 -s 0 -d 1 -p tcp -e 40 -c 2 -a 0 -i 0 -k RTR 
- -t 3.372409752 -s 0 -d 1 -p tcp -e 40 -c 2 -a 0 -i 0 -k RTR
h -t 3.372409752 -s 0 -d 1 -p tcp -e 40 -c 2 -a 0 -i 0 -k RTR
+ -t 3.414000000 -s 0 -d 1 -p tcp -e 92 -c 2 -a 0 -i 0 -k MAC 
- -t 3.414000000 -s 0 -d 1 -p tcp -e 92 -c 2 -a 0 -i 0 -k MAC
h -t 3.414000000 -s 0 -d 1 -p tcp -e 92 -c 2 -a 0 -i 0 -k MAC
r -t 3.414368750 -s 1 -d 1 -p tcp -e 40 -c 2 -a 0 -i 0 -k MAC
+ -t 3.414393750 -s 1 -d 6 -p tcp -e 40 -c 2 -a 0 -i 0 -k RTR 
- -t 3.414393750 -s 1 -d 6 -p tcp -e 40 -c 2 -a 0 -i 0 -k RTR
h -t 3.414393750 -s 1 -d 6 -p tcp -e 40 -c 2 -a 0 -i 0 -k RTR
+ -t 3.468000000 -s 1 -d 6 -p tcp -e 92 -c 2 -a 0 -i 0 -k MAC 
- -t 3.468000000 -s 1 -d 6 -p tcp -e 92 -c 2 -a 0 -i 0 -k MAC
h -t 3.468000000 -s 1 -d 6 -p tcp -e 92 -c 2 -a 0 -i 0 -k MAC
r -t 3.468368801 -s 6 -d 6 -p tcp -e 40 -c 2 -a 0 -i 0 -k MAC
+ -t 3.468393801 -s 6 -d 5 -p tcp -e 40 -c 2 -a 0 -i 0 -k RTR 
- -t 3.468393801 -s 6 -d 5 -p tcp -e 40 -c 2 -a 0 -i 0 -k RTR
h -t 3.468393801 -s 6 -d 5 -p tcp -e 40 -c 2 -a 0 -i 0 -k RTR
+ -t 3.546000000 -s 6 -d 5 -p tcp -e 92 -c 2 -a 0 -i 0 -k MAC 
- -t 3.546000000 -s 6 -d 5 -p tcp -e 92 -c 2 -a 0 -i 0 -k MAC
h -t 3.546000000 -s 6 -d 5 -p tcp -e 92 -c 2 -a 0 -i 0 -k MAC
r -t 3.546368785 -s 5 -d 5 -p tcp -e 40 -c 2 -a 0 -i 0 -k MAC
+ -t 3.546393785 -s 5 -d 3 -p tcp -e 40 -c 2 -a 0 -i 0 -k RTR 
- -t 3.546393785 -s 5 -d 3 -p tcp -e 40 -c 2 -a 0 -i 0 -k RTR
h -t 3.546393785 -s 5 -d 3 -p tcp -e 40 -c 2 -a 0 -i 0 -k RTR
+ -t 3.588000000 -s 5 -d 3 -p tcp -e 92 -c 2 -a 0 -i 0 -k MAC 
- -t 3.588000000 -s 5 -d 3 -p tcp -e 92 -c 2 -a 0 -i 0 -k MAC
h -t 3.588000000 -s 5 -d 3 -p tcp -e 92 -c 2 -a 0 -i 0 -k MAC
r -t 3.588368620 -s 3 -d 3 -p tcp -e 40 -c 2 -a 0 -i 0 -k MAC
r -t 3.588393620 -s 3 -d 3 -p tcp -e 40 -c 2 -a 0 -i 0 -k AGT
+ -t 3.588393620 -s 3 -d -1 -p ack -e 40 -c 2 -a 0 -i 3 -k AGT 
- -t 3.588393620 -s 3 -d -1 -p ack -e 40 -c 2 -a 0 -i 3 -k AGT
h -t 3.588393620 -s 3 -d -1 -p ack -e 40 -c 2 -a 0 -i 3 -k AGT
+ -t 3.588393620 -s 3 -d 5 -p ack -e 40 -c 2 -a 0 -i 3 -k RTR 
- -t 3.588393620 -s 3 -d 5 -p ack -e 40 -c 2 -a 0 -i 3 -k RTR
h -t 3.588393620 -s 3 -d 5 -p ack -e 40 -c 2 -a 0 -i 3 -k RTR
+ -t 3.624000000 -s 3 -d 5 -p ack -e 92 -c 2 -a 0 -i 3 -k MAC 
- -t 3.624000000 -s 3 -d 5 -p ack -e 92 -c 2 -a 0 -i 3 -k MAC
h -t 3.624000000 -s 3 -d 5 -p ack -e 92 -c 2 -a 0 -i 3 -k MAC
r -t 3.624368620 -s 5 -d 5 -p ack -e 40 -c 2 -a 0 -i 3 -k MAC
+ -t 3.624393620 -s 5 -d 6 -p ack -e 40 -c 2 -a 0 -i 3 -k RTR 
- -t 3.624393620 -s 5 -d 6 -p ack -e 40 -c 2 -a 0 -i 3 -k RTR
h -t 3.624393620 -s 5 -d 6 -p ack -e 40 -c 2 -a 0 -i 3 -k RTR
+ -t 3.684000000 -s 5 -d 6 -p ack -e 92 -c 2 -a 0 -i 3 -k MAC 
- -t 3.684000000 -s 5 -d 6 -p ack -e 92 -c 2 -a 0 -i 3 -k MAC
h -t 3.684000000 -s 5 -d 6 -p ack -e 92 -c 2 -a 0 -i 3 -k MAC
r -t 3.684368785 -s 6 -d 6 -p ack -e 40 -c 2 -a 0 -i 3 -k MAC
+ -t 3.684393785 -s 6 -d 1 -p ack -e 40 -c 2 -a 0 -i 3 -k RTR 