V -t * -v 1.0a5 -a 0
A -t * -n 1 -p 0 -o 0x7fffffff -c 30 -a 1
A -t * -h 1 -m 1073741823 -s 0
n -t * -a 4 -s 4 -S UP -v circle -c black -i black
n -t * -a 0 -s 0 -S UP -v circle -c black -i black
n -t * -a 5 -s 5 -S UP -v circle -c black -i black
n -t * -a 1 -s 1 -S UP -v circle -c black -i black
n -t * -a 2 -s 2 -S UP -v circle -c black -i black
n -t * -a 3 -s 3 -S UP -v circle -c black -i black
l -t * -s 3 -d 5 -S UP -r 100000000 -D 0.01 -c black -o right
X -t * -n 6 -r 100.0mb -D 10ms -o left
L -t * -s 6 -d 0 -o up
L -t * -s 6 -d 1 -o down
L -t * -s 6 -d 2 -o up
L -t * -s 6 -d 3 -o down
L -t * -s 6 -d 4 -o up
L -t * -s 6 -d 5 -o down
h -t 0.1 -s 0 -d 6 -p tcp -e 40 -c 0 -i 0 -a 0 -x {0.0 1.0 0 ------- null}
+ -t 0.11 -s 0 -d 6 -p tcp -e 40 -c 0 -i 0 -a 0 -x {0.0 1.0 0 ------- null}
- -t 0.11 -s 0 -d 6 -p tcp -e 40 -c 0 -i 0 -a 0 -x {0.0 1.0 0 ------- null}
h -t 0.11 -s 0 -d 6 -p tcp -e 40 -c 0 -i 0 -a 0 -x {0.0 1.0 -1 ------- null}
r -t 0.12000912 -s 6 -d 1 -p tcp -e 40 -c 0 -i 0 -a 0 -x {0.0 1.0 0 ------- null}
h -t 0.12000912 -s 1 -d 6 -p ack -e 40 -c 0 -i 1 -a 0 -x {1.0 0.0 0 ------- null}
+ -t 0.13000912 -s 1 -d 6 -p ack -e 40 -c 0 -i 1 -a 0 -x {1.0 0.0 0 ------- null}
- -t 0.13000912 -s 1 -d 6 -p ack -e 40 -c 0 -i 1 -a 0 -x {1.0 0.0 0 ------- null}
h -t 0.13000912 -s 1 -d 6 -p ack -e 40 -c 0 -i 1 -a 0 -x {1.0 0.0 -1 ------- null}
r -t 0.14001824 -s 6 -d 0 -p ack -e 40 -c 0 -i 1 -a 0 -x {1.0 0.0 0 ------- null}
h -t 0.14001824 -s 0 -d 6 -p tcp -e 1540 -c 0 -i 2 -a 0 -x {0.0 1.0 1 ------- null}
h -t 0.14001824 -s 0 -d 6 -p tcp -e 1540 -c 0 -i 3 -a 0 -x {0.0 1.0 2 ------- null}
+ -t 0.15001824 -s 0 -d 6 -p tcp -e 1540 -c 0 -i 2 -a 0 -x {0.0 1.0 1 ------- null}
- -t 0.15001824 -s 0 -d 6 -p tcp -e 1540 -c 0 -i 2 -a 0 -x {0.0 1.0 1 ------- null}
h -t 0.15001824 -s 0 -d 6 -p tcp -e 1540 -c 0 -i 2 -a 0 -x {0.0 1.0 -1 ------- null}
+ -t 0.15001824 -s 0 -d 6 -p tcp -e 1540 -c 0 -i 3 -a 0 -x {0.0 1.0 2 ------- null}
- -t 0.15014352 -s 0 -d 6 -p tcp -e 1540 -c 0 -i 3 -a 0 -x {0.0 1.0 2 ------- null}
h -t 0.15014352 -s 0 -d 6 -p tcp -e 1540 -c 0 -i 3 -a 0 -x {0.0 1.0 -1 ------- null}
r -t 0.16014656 -s 6 -d 1 -p tcp -e 1540 -c 0 -i 2 -a 0 -x {0.0 1.0 1 ------- null}
h -t 0.16014656 -s 1 -d 6 -p ack -e 40 -c 0 -i 4 -a 0 -x {1.0 0.0 1 ------- null}
r -t 0.16027184 -s 6 -d 1 -p tcp -e 1540 -c 0 -i 3 -a 0 -x {0.0 1.0 2 ------- null}
h -t 0.16027184 -s 1 -d 6 -p ack -e 40 -c 0 -i 5 -a 0 -x {1.0 0.0 2 ------- null}
+ -t 0.17014656 -s 1 -d 6 -p ack -e 40 -c 0 -i 4 -a 0 -x {1.0 0.0 1 ------- null}
- -t 0.17014656 -s 1 -d 6 -p ack -e 40 -c 0 -i 4 -a 0 -x {1.0 0.0 1 ------- null}
h -t 0.17014656 -s 1 -d 6 -p ack -e 40 -c 0 -i 4 -a 0 -x {1.0 0.0 -1 ------- null}
+ -t 0.17027184 -s 1 -d 6 -p ack -e 40 -c 0 -i 5 -a 0 -x {1.0 0.0 2 ------- null}
- -t 0.17027184 -s 1 -d 6 -p ack -e 40 -c 0 -i 5 -a 0 -x {1.0 0.0 2 ------- null}
h -t 0.17027184 -s 1 -d 6 -p ack -e 40 -c 0 -i 5 -a 0 -x {1.0 0.0 -1 ------- null}
r -t 0.18015568 -s 6 -d 0 -p ack -e 40 -c 0 -i 4 -a 0 -x {1.0 0.0 1 ------- null}
h -t 0.18015568 -s 0 -d 6 -p tcp -e 1540 -c 0 -i 6 -a 0 -x {0.0 1.0 3 ------- null}
h -t 0.18015568 -s 0 -d 6 -p tcp -e 1540 -c 0 -i 7 -a 0 -x {0.0 1.0 4 ------- null}
r -t 0.18028096 -s 6 -d 0 -p ack -e 40 -c 0 -i 5 -a 0 -x {1.0 0.0 2 ------- null}
h -t 0.18028096 -s 0 -d 6 -p tcp -e 1540 -c 0 -i 8 -a 0 -x {0.0 1.0 5 ------- null}
h -t 0.18028096 -s 0 -d 6 -p tcp -e 1540 -c 0 -i 9 -a 0 -x {0.0 1.0 6 ------- null}
+ -t 0.19015568 -s 0 -d 6 -p tcp -e 1540 -c 0 -i 6 -a 0 -x {0.0 1.0 3 ------- null}
- -t 0.19015568 -s 0 -d 6 -p tcp -e 1540 -c 0 -i 6 -a 0 -x {0.0 1.0 3 ------- null}
h -t 0.19015568 -s 0 -d 6 -p tcp -e 1540 -c 0 -i 6 -a 0 -x {0.0 1.0 -1 ------- null}
+ -t 0.19015568 -s 0 -d 6 -p tcp -e 1540 -c 0 -i 7 -a 0 -x {0.0 1.0 4 ------- null}
+ -t 0.19028096 -s 0 -d 6 -p tcp -e 1540 -c 0 -i 8 -a 0 -x {0.0 1.0 5 ------- null}
+ -t 0.19028096 -s 0 -d 6 -p tcp -e 1540 -c 0 -i 9 -a 0 -x {0.0 1.0 6 ------- null}
- -t 0.19028096 -s 0 -d 6 -p tcp -e 1540 -c 0 -i 7 -a 0 -x {0.0 1.0 4 ------- null}
h -t 0.19028096 -s 0 -d 6 -p tcp -e 1540 -c 0 -i 7 -a 0 -x {0.0 1.0 -1 ------- null}
- -t 0.19040624 -s 0 -d 6 -p tcp -e 1540 -c 0 -i 8 -a 0 -x {0.0 1.0 5 ------- null}
h -t 0.19040624 -s 0 -d 6 -p tcp -e 1540 -c 0 -i 8 -a 0 -x {0.0 1.0 -1 ------- null}
- -t 0.19053152 -s 0 -d 6 -p tcp -e 1540 -c 0 -i 9 -a 0 -x {0.0 1.0 6 ------- null}
h -t 0.19053152 -s 0 -d 6 -p tcp -e 1540 -c 0 -i 9 -a 0 -x {0.0 1.0 -1 ------- null}
r -t 0.200284 -s 6 -d 1 -p tcp -e 1540 -c 0 -i 6 -a 0 -x {0.0 1.0 3 ------- null}
h -t 0.200284 -s 1 -d 6 -p ack -e 40 -c 0 -i 10 -a 0 -x {1.0 0.0 3 ------- null}
r -t 0.20040928 -s 6 -d 1 -p tcp -e 1540 -c 0 -i 7 -a 0 -x {0.0 1.0 4 ------- null}
h -t 0.20040928 -s 1 -d 6 -p ack -e 40 -c 0 -i 11 -a 0 -x {1.0 0.0 4 ------- null}
r -t 0.20053456 -s 6 -d 1 -p tcp -e 1540 -c 0 -i 8 -a 0 -x {0.0 1.0 5 ------- null}
h -t 0.20053456 -s 1 -d 6 -p ack -e 40 -c 0 -i 12 -a 0 -x {1.0 0.0 5 ------- null}
r -t 0.20065984 -s 6 -d 1 -p tcp -e 1540 -c 0 -i 9 -a 0 -x {0.0 1.0 6 ------- null}
h -t 0.20065984 -s 1 -d 6 -p ack -e 40 -c 0 -i 13 -a 0 -x {1.0 0.0 6 ------- null}
+ -t 0.210284 -s 1 -d 6 -p ack -e 40 -c 0 -i 10 -a 0 -x {1.0 0.0 3 ------- null}
- -t 0.210284 -s 1 -d 6 -p ack -e 40 -c 0 -i 10 -a 0 -x {1.0 0.0 3 ------- null}
h -t 0.210284 -s 1 -d 6 -p ack -e 40 -c 0 -i 10 -a 0 -x {1.0 0.0 -1 ------- null}
+ -t 0.21040928 -s 1 -d 6 -p ack -e 40 -c 0 -i 11 -a 0 -x {1.0 0.0 4 ------- null}
- -t 0.21040928 -s 1 -d 6 -p ack -e 40 -c 0 -i 11 -a 0 -x {1.0 0.0 4 ------- null}
h -t 0.21040928 -s 1 -d 6 -p ack -e 40 -c 0 -i 11 -a 0 -x {1.0 0.0 -1 ------- null}
+ -t 0.21053456 -s 1 -d 6 -p ack -e 40 -c 0 -i 12 -a 0 -x {1.0 0.0 5 ------- null}
- -t 0.21053456 -s 1 -d 6 -p ack -e 40 -c 0 -i 12 -a 0 -x {1.0 0.0 5 ------- null}
h -t 0.21053456 -s 1 -d 6 -p ack -e 40 -c 0 -i 12 -a 0 -x {1.0 0.0 -1 ------- null}
+ -t 0.21065984 -s 1 -d 6 -p ack -e 40 -c 0 -i 13 -a 0 -x {1.0 0.0 6 ------- null}
- -t 0.21065984 -s 1 -d 6 -p ack -e 40 -c 0 -i 13 -a 0 -x {1.0 0.0 6 ------- null}
h -t 0.21065984 -s 1 -d 6 -p ack -e 40 -c 0 -i 13 -a 0 -x {1.0 0.0 -1 ------- null}
r -t 0.22029312 -s 6 -d 0 -p ack -e 40 -c 0 -i 10 -a 0 -x {1.0 0.0 3 ------- null}
r -t 0.2204184 -s 6 -d 0 -p ack -e 40 -c 0 -i 11 -a 0 -x {1.0 0.0 4 ------- null}
r -t 0.22054368 -s 6 -d 0 -p ack -e 40 -c 0 -i 12 -a 0 -x {1.0 0.0 5 ------- null}
r -t 0.22066896 -s 6 -d 0 -p ack -e 40 -c 0 -i 13 -a 0 -x {1.0 0.0 6 ------- null}
h -t 0.3 -s 0 -d 6 -p tcp -e 1540 -c 0 -i 14 -a 0 -x {0.0 1.0 7 ------- null}
h -t 0.3 -s 0 -d 6 -p tcp -e 1540 -c 0 -i 15 -a 0 -x {0.0 1.0 8 ------- null}
h -t 0.3 -s 0 -d 6 -p tcp -e 1540 -c 0 -i 16 -a 0 -x {0.0 1.0 9 ------- null}
h -t 0.3 -s 0 -d 6 -p tcp -e 1540 -c 0 -i 17 -a 0 -x {0.0 1.0 10 ------- null}
h -t 0.3 -s 0 -d 6 -p tcp -e 1540 -c 0 -i 18 -a 0 -x {0.0 1.0 11 ------- null}
h -t 0.3 -s 0 -d 6 -p tcp -e 1540 -c 0 -i 19 -a 0 -x {0.0 1.0 12 ------- null}
h -t 0.3 -s 0 -d 6 -p tcp -e 1540 -c 0 -i 20 -a 0 -x {0.0 1.0 13 ------- null}
h -t 0.3 -s 0 -d 6 -p tcp -e 1540 -c 0 -i 21 -a 0 -x {0.0 1.0 14 ------- null}
+ -t 0.31 -s 0 -d 6 -p tcp -e 1540 -c 0 -i 14 -a 0 -x {0.0 1.0 7 ------- null}
- -t 0.31 -s 0 -d 6 -p tcp -e 1540 -c 0 -i 14 -a 0 -x {0.0 1.0 7 ------- null}
h -t 0.31 -s 0 -d 6 -p tcp -e 1540 -c 0 -i 14 -a 0 -x {0.0 1.0 -1 ------- null}
+ -t 0.31 -s 0 -d 6 -p tcp -e 1540 -c 0 -i 15 -a 0 -x {0.0 1.0 8 ------- null}
+ -t 0.31 -s 0 -d 6 -p tcp -e 1540 -c 0 -i 16 -a 0 -x {0.0 1.0 9 ------- null}
+ -t 0.31 -s 0 -d 6 -p tcp -e 1540 -c 0 -i 17 -a 0 -x {0.0 1.0 10 ------- null}
+ -t 0.31 -s 0 -d 6 -p tcp -e 1540 -c 0 -i 18 -a 0 -x {0.0 1.0 11 ------- null}
+ -t 0.31 -s 0 -d 6 -p tcp -e 1540 -c 0 -i 19 -a 0 -x {0.0 1.0 12 ------- null}
+ -t 0.31 -s 0 -d 6 -p tcp -e 1540 -c 0 -i 20 -a 0 -x {0.0 1.0 13 ------- null}
+ -t 0.31 -s 0 -d 6 -p tcp -e 1540 -c 0 -i 21 -a 0 -x {0.0 1.0 14 ------- null}
- -t 0.31012528 -s 0 -d 6 -p tcp -e 1540 -c 0 -i 15 -a 0 -x {0.0 1.0 8 ------- null}
h -t 0.31012528 -s 0 -d 6 -p tcp -e 1540 -c 0 -i 15 -a 0 -x {0.0 1.0 -1 ------- null}
- -t 0.31025056 -s 0 -d 6 -p tcp -e 1540 -c 0 -i 16 -a 0 -x {0.0 1.0 9 ------- null}
h -t 0.31025056 -s 0 -d 6 -p tcp -e 1540 -c 0 -i 16 -a 0 -x {0.0 1.0 -1 ------- null}
- -t 0.31037584 -s 0 -d 6 -p tcp -e 1540 -c 0 -i 17 -a 0 -x {0.0 1.0 10 ------- null}
h -t 0.31037584 -s 0 -d 6 -p tcp -e 1540 -c 0 -i 17 -a 0 -x {0.0 1.0 -1 ------- null}
- -t 0.31050112 -s 0 -d 6 -p tcp -e 1540 -c 0 -i 18 -a 0 -x {0.0 1.0 11 ------- null}
h -t 0.31050112 -s 0 -d 6 -p tcp -e 1540 -c 0 -i 18 -a 0 -x {0.0 1.0 -1 ------- null}
- -t 0.3106264 -s 0 -d 6 -p tcp -e 1540 -c 0 -i 19 -a 0 -x {0.0 1.0 12 ------- null}
h -t 0.3106264 -s 0 -d 6 -p tcp -e 1540 -c 0 -i 19 -a 0 -x {0.0 1.0 -1 ------- null}
- -t 0.31075168 -s 0 -d 6 -p tcp -e 1540 -c 0 -i 20 -a 0 -x {0.0 1.0 13 ------- null}
h -t 0.31075168 -s 0 -d 6 -p tcp -e 1540 -c 0 -i 20 -a 0 -x {0.0 1.0 -1 ------- null}
- -t 0.31087696 -s 0 -d 6 -p tcp -e 1540 -c 0 -i 21 -a 0 -x {0.0 1.0 14 ------- null}
h -t 0.31087696 -s 0 -d 6 -p tcp -e 1540 -c 0 -i 21 -a 0 -x {0.0 1.0 -1 ------- null}
r -t 0.32012832 -s 6 -d 1 -p tcp -e 1540 -c 0 -i 14 -a 0 -x {0.0 1.0 7 ------- null}
h -t 0.32012832 -s 1 -d 6 -p ack -e 40 -c 0 -i 22 -a 0 -x {1.0 0.0 7 ------- null}
r -t 0.3202536 -s 6 -d 1 -p tcp -e 1540 -c 0 -i 15 -a 0 -x {0.0 1.0 8 ------- null}
h -t 0.3202536 -s 1 -d 6 -p ack -e 40 -c 0 -i 23 -a 0 -x {1.0 0.0 8 ------- null}
r -t 0.32037888 -s 6 -d 1 -p tcp -e 1540 -c 0 -i 16 -a 0 -x {0.0 1.0 9 ------- null}
h -t 0.32037888 -s 1 -d 6 -p ack -e 40 -c 0 -i 24 -a 0 -x {1.0 0.0 9 ------- null}
r -t 0.32050416 -s 6 -d 1 -p tcp -e 1540 -c 0 -i 17 -a 0 -x {0.0 1.0 10 ------- null}
h -t 0.32050416 -s 1 -d 6 -p ack -e 40 -c 0 -i 25 -a 0 -x {1.0 0.0 10 ------- null}
r -t 0.32062944 -s 6 -d 1 -p tcp -e 1540 -c 0 -i 18 -a 0 -x {0.0 1.0 11 ------- null}
h -t 0.32062944 -s 1 -d 6 -p ack -e 40 -c 0 -i 26 -a 0 -x {1.0 0.0 11 ------- null}
r -t 0.32075472 -s 6 -d 1 -p tcp -e 1540 -c 0 -i 19 -a 0 -x {0.0 1.0 12 ------- null}
h -t 0.32075472 -s 1 -d 6 -p ack -e 40 -c 0 -i 27 -a 0 -x {1.0 0.0 12 ------- null}
r -t 0.32088 -s 6 -d 1 -p tcp -e 1540 -c 0 -i 20 -a 0 -x {0.0 1.0 13 ------- null}
h -t 0.32088 -s 1 -d 6 -p ack -e 40 -c 0 -i 28 -a 0 -x {1.0 0.0 13 ------- null}
r -t 0.32100528 -s 6 -d 1 -p tcp -e 1540 -c 0 -i 21 -a 0 -x {0.0 1.0 14 ------- null}
h -t 0.32100528 -s 1 -d 6 -p ack -e 40 -c 0 -i 29 -a 0 -x {1.0 0.0 14 ------- null}
+ -t 0.33012832 -s 1 -d 6 -p ack -e 40 -c 0 -i 22 -a 0 -x {1.0 0.0 7 ------- null}
- -t 0.33012832 -s 1 -d 6 -p ack -e 40 -c 0 -i 22 -a 0 -x {1.0 0.0 7 ------- null}
h -t 0.33012832 -s 1 -d 6 -p ack -e 40 -c 0 -i 22 -a 0 -x {1.0 0.0 -1 ------- null}
+ -t 0.3302536 -s 1 -d 6 -p ack -e 40 -c 0 -i 23 -a 0 -x {1.0 0.0 8 ------- null}
- -t 0.3302536 -s 1 -d 6 -p ack -e 40 -c 0 -i 23 -a 0 -x {1.0 0.0 8 ------- null}
h -t 0.3302536 -s 1 -d 6 -p ack -e 40 -c 0 -i 23 -a 0 -x {1.0 0.0 -1 ------- null}
+ -t 0.33037888 -s 1 -d 6 -p ack -e 40 -c 0 -i 24 -a 0 -x {1.0 0.0 9 ------- null}
- -t 0.33037888 -s 1 -d 6 -p ack -e 40 -c 0 -i 24 -a 0 -x {1.0 0.0 9 ------- null}
h -t 0.33037888 -s 1 -d 6 -p ack -e 40 -c 0 -i 24 -a 0 -x {1.0 0.0 -1 ------- null}
+ -t 0.33050416 -s 1 -d 6 -p ack -e 40 -c 0 -i 25 -a 0 -x {1.0 0.0 10 ------- null}
- -t 0.33050416 -s 1 -d 6 -p ack -e 40 -c 0 -i 25 -a 0 -x {1.0 0.0 10 ------- null}
h -t 0.33050416 -s 1 -d 6 -p ack -e 40 -c 0 -i 25 -a 0 -x {1.0 0.0 -1 ------- null}
+ -t 0.33062944 -s 1 -d 6 -p ack -e 40 -c 0 -i 26 -a 0 -x {1.0 0.0 11 ------- null}
- -t 0.33062944 -s 1 -d 6 -p ack -e 40 -c 0 -i 26 -a 0 -x {1.0 0.0 11 ------- null}
h -t 0.33062944 -s 1 -d 6 -p ack -e 40 -c 0 -i 26 -a 0 -x {1.0 0.0 -1 ------- null}
+ -t 0.33075472 -s 1 -d 6 -p ack -e 40 -c 0 -i 27 -a 0 -x {1.0 0.0 12 ------- null}
- -t 0.33075472 -s 1 -d 6 -p ack -e 40 -c 0 -i 27 -a 0 -x {1.0 0.0 12 ------- null}
h -t 0.33075472 -s 1 -d 6 -p ack -e 40 -c 0 -i 27 -a 0 -x {1.0 0.0 -1 ------- null}
+ -t 0.33088 -s 1 -d 6 -p ack -e 40 -c 0 -i 28 -a 0 -x {1.0 0.0 13 ------- null}
- -t 0.33088 -s 1 -d 6 -p ack -e 40 -c 0 -i 28 -a 0 -x {1.0 0.0 13 ------- null}
h -t 0.33088 -s 1 -d 6 -p ack -e 40 -c 0 -i 28 -a 0 -x {1.0 0.0 -1 ------- null}
+ -t 0.33100528 -s 1 -d 6 -p ack -e 40 -c 0 -i 29 -a 0 -x {1.0 0.0 14 ------- null}
- -t 0.33100528 -s 1 -d 6 -p ack -e 40 -c 0 -i 29 -a 0 -x {1.0 0.0 14 ------- null}
h -t 0.33100528 -s 1 -d 6 -p ack -e 40 -c 0 -i 29 -a 0 -x {1.0 0.0 -1 ------- null}
r -t 0.34013744 -s 6 -d 0 -p ack -e 40 -c 0 -i 22 -a 0 -x {1.0 0.0 7 ------- null}
h -t 0.34013744 -s 0 -d 6 -p tcp -e 1540 -c 0 -i 30 -a 0 -x {0.0 1.0 15 ------- null}
h -t 0.34013744 -s 0 -d 6 -p tcp -e 1540 -c 0 -i 31 -a 0 -x {0.0 1.0 16 ------- null}
r -t 0.34026272 -s 6 -d 0 -p ack -e 40 -c 0 -i 23 -a 0 -x {1.0 0.0 8 ------- null}
h -t 0.34026272 -s 0 -d 6 -p tcp -e 1540 -c 0 -i 32 -a 0 -x {0.0 1.0 17 ------- null}
h -t 0.34026272 -s 0 -d 6 -p tcp -e 1540 -c 0 -i 33 -a 0 -x {0.0 1.0 18 ------- null}
r -t 0.340388 -s 6 -d 0 -p ack -e 40 -c 0 -i 24 -a 0 -x {1.0 0.0 9 ------- null}
h -t 0.340388 -s 0 -d 6 -p tcp -e 1540 -c 0 -i 34 -a 0 -x {0.0 1.0 19 ------- null}
h -t 0.340388 -s 0 -d 6 -p tcp -e 1540 -c 0 -i 35 -a 0 -x {0.0 1.0 20 ------- null}
r -t 0.34051328 -s 6 -d 0 -p ack -e 40 -c 0 -i 25 -a 0 -x {1.0 0.0 10 ------- null}
h -t 0.34051328 -s 0 -d 6 -p tcp -e 1540 -c 0 -i 36 -a 0 -x {0.0 1.0 21 ------- null}
h -t 0.34051328 -s 0 -d 6 -p tcp -e 1540 -c 0 -i 37 -a 0 -x {0.0 1.0 22 ------- null}
r -t 0.34063856 -s 6 -d 0 -p ack -e 40 -c 0 -i 26 -a 0 -x {1.0 0.0 11 ------- null}
h -t 0.34063856 -s 0 -d 6 -p tcp -e 1540 -c 0 -i 38 -a 0 -x {0.0 1.0 23 ------- null}
h -t 0.34063856 -s 0 -d 6 -p tcp -e 1540 -c 0 -i 39 -a 0 -x {0.0 1.0 24 ------- null}
r -t 0.34076384 -s 6 -d 0 -p ack -e 40 -c 0 -i 27 -a 0 -x {1.0 0.0 12 ------- null}
h -t 0.34076384 -s 0 -d 6 -p tcp -e 1540 -c 0 -i 40 -a 0 -x {0.0 1.0 25 ------- null}
h -t 0.34076384 -s 0 -d 6 -p tcp -e 1540 -c 0 -i 41 -a 0 -x {0.0 1.0 26 ------- null}
r -t 0.34088912 -s 6 -d 0 -p ack -e 40 -c 0 -i 28 -a 0 -x {1.0 0.0 13 ------- null}
h -t 0.34088912 -s 0 -d 6 -p tcp -e 1540 -c 0 -i 42 -a 0 -x {0.0 1.0 27 ------- null}
h -t 0.34088912 -s 0 -d 6 -p tcp -e 1540 -c 0 -i 43 -a 0 -x {0.0 1.0 28 ------- null}
r -t 0.3410144 -s 6 -d 0 -p ack -e 40 -c 0 -i 29 -a 0 -x {1.0 0.0 14 ------- null}
h -t 0.3410144 -s 0 -d 6 -p tcp -e 1540 -c 0 -i 44 -a 0 -x {0.0 1.0 29 ------- null}
h -t 0.3410144 -s 0 -d 6 -p tcp -e 1540 -c 0 -i 45 -a 0 -x {0.0 1.0 30 ------- null}
+ -t 0.35013744 -s 0 -d 6 -p tcp -e 1540 -c 0 -i 30 -a 0 -x {0.0 1.0 15 ------- null}
- -t 0.35013744 -s 0 -d 6 -p tcp -e 1540 -c 0 -i 30 -a 0 -x {0.0 1.0 15 ------- null}
h -t 0.35013744 -s 0 -d 6 -p tcp -e 1540 -c 0 -i 30 -a 0 -x {0.0 1.0 -1 ------- null}
+ -t 0.35013744 -s 0 -d 6 -p tcp -e 1540 -c 0 -i 31 -a 0 -x {0.0 1.0 16 ------- null}
+ -t 0.35026272 -s 0 -d 6 -p tcp -e 1540 -c 0 -i 32 -a 0 -x {0.0 1.0 17 ------- null}
+ -t 0.35026272 -s 0 -d 6 -p tcp -e 1540 -c 0 -i 33 -a 0 -x {0.0 1.0 18 ------- null}
- -t 0.35026272 -s 0 -d 6 -p tcp -e 1540 -c 0 -i 31 -a 0 -x {0.0 1.0 16 ------- null}
h -t 0.35026272 -s 0 -d 6 -p tcp -e 1540 -c 0 -i 31 -a 0 -x {0.0 1.0 -1 ------- null}
+ -t 0.350388 -s 0 -d 6 -p tcp -e 1540 -c 0 -i 34 -a 0 -x {0.0 1.0 19 ------- null}
+ -t 0.350388 -s 0 -d 6 -p tcp -e 1540 -c 0 -i 35 -a 0 -x {0.0 1.0 20 ------- null}
- -t 0.350388 -s 0 -d 6 -p tcp -e 1540 -c 0 -i 32 -a 0 -x {0.0 1.0 17 ------- null}
h -t 0.350388 -s 0 -d 6 -p tcp -e 1540 -c 0 -i 32 -a 0 -x {0.0 1.0 -1 ------- null}
+ -t 0.35051328 -s 0 -d 6 -p tcp -e 1540 -c 0 -i 36 -a 0 -x {0.0 1.0 21 ------- null}
+ -t 0.35051328 -s 0 -d 6 -p tcp -e 1540 -c 0 -i 37 -a 0 -x {0.0 1.0 22 ------- null}
- -t 0.35051328 -s 0 -d 6 -p tcp -e 1540 -c 0 -i 33 -a 0 -x {0.0 1.0 18 ------- null}
h -t 0.35051328 -s 0 -d 6 -p tcp -e 1540 -c 0 -i 33 -a 0 -x {0.0 1.0 -1 ------- null}
+ -t 0.35063856 -s 0 -d 6 -p tcp -e 1540 -c 0 -i 38 -a 0 -x {0.0 1.0 23 ------- null}
+ -t 0.35063856 -s 0 -d 6 -p tcp -e 1540 -c 0 -i 39 -a 0 -x {0.0 1.0 24 ------- null}
- -t 0.35063856 -s 0 -d 6 -p tcp -e 1540 -c 0 -i 34 -a 0 -x {0.0 1.0 19 ------- null}
h -t 0.35063856 -s 0 -d 6 -p tcp -e 1540 -c 0 -i 34 -a 0 -x {0.0 1.0 -1 ------- null}
+ -t 0.35076384 -s 0 -d 6 -p tcp -e 1540 -c 0 -i 40 -a 0 -x {0.0 1.0 25 ------- null}
+ -t 0.35076384 -s 0 -d 6 -p tcp -e 1540 -c 0 -i 41 -a 0 -x {0.0 1.0 26 ------- null}
- -t 0.35076384 -s 0 -d 6 -p tcp -e 1540 -c 0 -i 35 -a 0 -x {0.0 1.0 20 ------- null}
h -t 0.35076384 -s 0 -d 6 -p tcp -e 1540 -c 0 -i 35 -a 0 -x {0.0 1.0 -1 ------- null}
+ -t 0.35088912 -s 0 -d 6 -p tcp -e 1540 -c 0 -i 42 -a 0 -x {0.0 1.0 27 ------- null}
+ -t 0.35088912 -s 0 -d 6 -p tcp -e 1540 -c 0 -i 43 -a 0 -x {0.0 1.0 28 ------- null}
- -t 0.35088912 -s 0 -d 6 -p tcp -e 1540 -c 0 -i 36 -a 0 -x {0.0 1.0 21 ------- null}
h -t 0.35088912 -s 0 -d 6 -p tcp -e 1540 -c 0 -i 36 -a 0 -x {0.0 1.0 -1 ------- null}
+ -t 0.3510144 -s 0 -d 6 -p tcp -e 1540 -c 0 -i 44 -a 0 -x {0.0 1.0 29 ------- null}
+ -t 0.3510144 -s 0 -d 6 -p tcp -e 1540 -c 0 -i 45 -a 0 -x {0.0 1.0 30 ------- null}
- -t 0.3510144 -s 0 -d 6 -p tcp -e 1540 -c 0 -i 37 -a 0 -x {0.0 1.0 22 ------- null}
h -t 0.3510144 -s 0 -d 6 -p tcp -e 1540 -c 0 -i 37 -a 0 -x {0.0 1.0 -1 ------- null}
- -t 0.35113968 -s 0 -d 6 -p tcp -e 1540 -c 0 -i 38 -a 0 -x {0.0 1.0 23 ------- null}
h -t 0.35113968 -s 0 -d 6 -p tcp -e 1540 -c 0 -i 38 -a 0 -x {0.0 1.0 -1 ------- null}
- -t 0.35126496 -s 0 -d 6 -p tcp -e 1540 -c 0 -i 39 -a 0 -x {0.0 1.0 24 ------- null}
h -t 0.35126496 -s 0 -d 6 -p tcp -e 1540 -c 0 -i 39 -a 0 -x {0.0 1.0 -1 ------- null}
- -t 0.35139024 -s 0 -d 6 -p tcp -e 1540 -c 0 -i 40 -a 0 -x {0.0 1.0 25 ------- null}
h -t 0.35139024 -s 0 -d 6 -p tcp -e 1540 -c 0 -i 40 -a 0 -x {0.0 1.0 -1 ------- null}
- -t 0.35151552 -s 0 -d 6 -p tcp -e 1540 -c 0 -i 41 -a 0 -x {0.0 1.0 26 ------- null}
h -t 0.35151552 -s 0 -d 6 -p tcp -e 1540 -c 0 -i 41 -a 0 -x {0.0 1.0 -1 ------- null}
- -t 0.3516408 -s 0 -d 6 -p tcp -e 1540 -c 0 -i 42 -a 0 -x {0.0 1.0 27 ------- null}
h -t 0.3516408 -s 0 -d 6 -p tcp -e 1540 -c 0 -i 42 -a 0 -x {0.0 1.0 -1 ------- null}
- -t 0.35176608 -s 0 -d 6 -p tcp -e 1540 -c 0 -i 43 -a 0 -x {0.0 1.0 28 ------- null}
h -t 0.35176608 -s 0 -d 6 -p tcp -e 1540 -c 0 -i 43 -a 0 -x {0.0 1.0 -1 ------- null}
- -t 0.35189136 -s 0 -d 6 -p tcp -e 1540 -c 0 -i 44 -a 0 -x {0.0 1.0 29 ------- null}
h -t 0.35189136 -s 0 -d 6 -p tcp -e 1540 -c 0 -i 44 -a 0 -x {0.0 1.0 -1 ------- null}
- -t 0.35201664 -s 0 -d 6 -p tcp -e 1540 -c 0 -i 45 -a 0 -x {0.0 1.0 30 ------- null}
h -t 0.35201664 -s 0 -d 6 -p tcp -e 1540 -c 0 -i 45 -a 0 -x {0.0 1.0 -1 ------- null}
r -t 0.36026576 -s 6 -d 1 -p tcp -e 1540 -c 0 -i 30 -a 0 -x {0.0 1.0 15 ------- null}
h -t 0.36026576 -s 1 -d 6 -p ack -e 40 -c 0 -i 46 -a 0 -x {1.0 0.0 15 ------- null}
r -t 0.36039104 -s 6 -d 1 -p tcp -e 1540 -c 0 -i 31 -a 0 -x {0.0 1.0 16 ------- null}
h -t 0.36039104 -s 1 -d 6 -p ack -e 40 -c 0 -i 47 -a 0 -x {1.0 0.0 16 ------- null}
r -t 0.36051632 -s 6 -d 1 -p tcp -e 1540 -c 0 -i 32 -a 0 -x {0.0 1.0 17 ------- null}
h -t 0.36051632 -s 1 -d 6 -p ack -e 40 -c 0 -i 48 -a 0 -x {1.0 0.0 17 ------- null}
r -t 0.3606416 -s 6 -d 1 -p tcp -e 1540 -c 0 -i 33 -a 0 -x {0.0 1.0 18 ------- null}
h -t 0.3606416 -s 1 -d 6 -p ack -e 40 -c 0 -i 49 -a 0 -x {1.0 0.0 18 ------- null}
r -t 0.36076688 -s 6 -d 1 -p tcp -e 1540 -c 0 -i 34 -a 0 -x {0.0 1.0 19 ------- null}
h -t 0.36076688 -s 1 -d 6 -p ack -e 40 -c 0 -i 50 -a 0 -x {1.0 0.0 19 ------- null}
r -t 0.36089216 -s 6 -d 1 -p tcp -e 1540 -c 0 -i 35 -a 0 -x {0.0 1.0 20 ------- null}
h -t 0.36089216 -s 1 -d 6 -p ack -e 40 -c 0 -i 51 -a 0 -x {1.0 0.0 20 ------- null}
r -t 0.36101744 -s 6 -d 1 -p tcp -e 1540 -c 0 -i 36 -a 0 -x {0.0 1.0 21 ------- null}
h -t 0.36101744 -s 1 -d 6 -p ack -e 40 -c 0 -i 52 -a 0 -x {1.0 0.0 21 ------- null}
r -t 0.36114272 -s 6 -d 1 -p tcp -e 1540 -c 0 -i 37 -a 0 -x {0.0 1.0 22 ------- null}
h -t 0.36114272 -s 1 -d 6 -p ack -e 40 -c 0 -i 53 -a 0 -x {1.0 0.0 22 ------- null}
r -t 0.361268 -s 6 -d 1 -p tcp -e 1540 -c 0 -i 38 -a 0 -x {0.0 1.0 23 ------- null}
h -t 0.361268 -s 1 -d 6 -p ack -e 40 -c 0 -i 54 -a 0 -x {1.0 0.0 23 ------- null}
r -t 0.36139328 -s 6 -d 1 -p tcp -e 1540 -c 0 -i 39 -a 0 -x {0.0 1.0 24 ------- null}
h -t 0.36139328 -s 1 -d 6 -p ack -e 40 -c 0 -i 55 -a 0 -x {1.0 0.0 24 ------- null}
r -t 0.36151856 -s 6 -d 1 -p tcp -e 1540 -c 0 -i 40 -a 0 -x {0.0 1.0 25 ------- null}
h -t 0.36151856 -s 1 -d 6 -p ack -e 40 -c 0 -i 56 -a 0 -x {1.0 0.0 25 ------- null}
r -t 0.36164384 -s 6 -d 1 -p tcp -e 1540 -c 0 -i 41 -a 0 -x {0.0 1.0 26 ------- null}
h -t 0.36164384 -s 1 -d 6 -p ack -e 40 -c 0 -i 57 -a 0 -x {1.0 0.0 26 ------- null}
r -t 0.36176912 -s 6 -d 1 -p tcp -e 1540 -c 0 -i 42 -a 0 -x {0.0 1.0 27 ------- null}
h -t 0.36176912 -s 1 -d 6 -p ack -e 40 -c 0 -i 58 -a 0 -x {1.0 0.0 27 ------- null}
r -t 0.3618944 -s 6 -d 1 -p tcp -e 1540 -c 0 -i 43 -a 0 -x {0.0 1.0 28 ------- null}
h -t 0.3618944 -s 1 -d 6 -p ack -e 40 -c 0 -i 59 -a 0 -x {1.0 0.0 28 ------- null}
r -t 0.36201968 -s 6 -d 1 -p tcp -e 1540 -c 0 -i 44 -a 0 -x {0.0 1.0 29 ------- null}
h -t 0.36201968 -s 1 -d 6 -p ack -e 40 -c 0 -i 60 -a 0 -x {1.0 0.0 29 ------- null}
r -t 0.36214496 -s 6 -d 1 -p tcp -e 1540 -c 0 -i 45 -a 0 -x {0.0 1.0 30 ------- null}
h -t 0.36214496 -s 1 -d 6 -p ack -e 40 -c 0 -i 61 -a 0 -x {1.0 0.0 30 ------- null}
+ -t 0.37026576 -s 1 -d 6 -p ack -e 40 -c 0 -i 46 -a 0 -x {1.0 0.0 15 ------- null}
- -t 0.37026576 -s 1 -d 6 -p ack -e 40 -c 0 -i 46 -a 0 -x {1.0 0.0 15 ------- null}
h -t 0.37026576 -s 1 -d 6 -p ack -e 40 -c 0 -i 46 -a 0 -x {1.0 0.0 -1 ------- null}
+ -t 0.37039104 -s 1 -d 6 -p ack -e 40 -c 0 -i 47 -a 0 -x {1.0 0.0 16 ------- null}
- -t 0.37039104 -s 1 -d 6 -p ack -e 40 -c 0 -i 47 -a 0 -x {1.0 0.0 16 ------- null}
h -t 0.37039104 -s 1 -d 6 -p ack -e 40 -c 0 -i 47 -a 0 -x {1.0 0.0 -1 ------- null}
+ -t 0.37051632 -s 1 -d 6 -p ack -e 40 -c 0 -i 48 -a 0 -x {1.0 0.0 17 ------- null}
- -t 0.37051632 -s 1 -d 6 -p ack -e 40 -c 0 -i 48 -a 0 -x {1.0 0.0 17 ------- null}
h -t 0.37051632 -s 1 -d 6 -p ack -e 40 -c 0 -i 48 -a 0 -x {1.0 0.0 -1 ------- null}
+ -t 0.3706416 -s 1 -d 6 -p ack -e 40 -c 0 -i 49 -a 0 -x {1.0 0.0 18 ------- null}
- -t 0.3706416 -s 1 -d 6 -p ack -e 40 -c 0 -i 49 -a 0 -x {1.0 0.0 18 ------- null}
h -t 0.3706416 -s 1 -d 6 -p ack -e 40 -c 0 -i 49 -a 0 -x {1.0 0.0 -1 ------- null}
+ -t 0.37076688 -s 1 -d 6 -p ack -e 40 -c 0 -i 50 -a 0 -x {1.0 0.0 19 ------- null}
- -t 0.37076688 -s 1 -d 6 -p ack -e 40 -c 0 -i 50 -a 0 -x {1.0 0.0 19 ------- null}
h -t 0.37076688 -s 1 -d 6 -p ack -e 40 -c 0 -i 50 -a 0 -x {1.0 0.0 -1 ------- null}
+ -t 0.37089216 -s 1 -d 6 -p ack -e 40 -c 0 -i 51 -a 0 -x {1.0 0.0 20 ------- null}
- -t 0.37089216 -s 1 -d 6 -p ack -e 40 -c 0 -i 51 -a 0 -x {1.0 0.0 20 ------- null}
h -t 0.37089216 -s 1 -d 6 -p ack -e 40 -c 0 -i 51 -a 0 -x {1.0 0.0 -1 ------- null}
+ -t 0.37101744 -s 1 -d 6 -p ack -e 40 -c 0 -i 52 -a 0 -x {1.0 0.0 21 ------- null}
- -t 0.37101744 -s 1 -d 6 -p ack -e 40 -c 0 -i 52 -a 0 -x {1.0 0.0 21 ------- null}
h -t 0.37101744 -s 1 -d 6 -p ack -e 40 -c 0 -i 52 -a 0 -x {1.0 0.0 -1 ------- null}
+ -t 0.37114272 -s 1 -d 6 -p ack -e 40 -c 0 -i 53 -a 0 -x {1.0 0.0 22 ------- null}
- -t 0.37114272 -s 1 -d 6 -p ack -e 40 -c 0 -i 53 -a 0 -x {1.0 0.0 22 ------- null}
h -t 0.37114272 -s 1 -d 6 -p ack -e 40 -c 0 -i 53 -a 0 -x {1.0 0.0 -1 ------- null}
+ -t 0.371268 -s 1 -d 6 -p ack -e 40 -c 0 -i 54 -a 0 -x {1.0 0.0 23 ------- null}
- -t 0.371268 -s 1 -d 6 -p ack -e 40 -c 0 -i 54 -a 0 -x {1.0 0.0 23 ------- null}
h -t 0.371268 -s 1 -d 6 -p ack -e 40 -c 0 -i 54 -a 0 -x {1.0 0.0 -1 ------- null}
+ -t 0.37139328 -s 1 -d 6 -p ack -e 40 -c 0 -i 55 -a 0 -x {1.0 0.0 24 ------- null}
- -t 0.37139328 -s 1 -d 6 -p ack -e 40 -c 0 -i 55 -a 0 -x {1.0 0.0 24 ------- null}
h -t 0.37139328 -s 1 -d 6 -p ack -e 40 -c 0 -i 55 -a 0 -x {1.0 0.0 -1 ------- null}
+ -t 0.37151856 -s 1 -d 6 -p ack -e 40 -c 0 -i 56 -a 0 -x {1.0 0.0 25 ------- null}
- -t 0.37151856 -s 1 -d 6 -p ack -e 40 -c 0 -i 56 -a 0 -x {1.0 0.0 25 ------- null}
h -t 0.37151856 -s 1 -d 6 -p ack -e 40 -c 0 -i 56 -a 0 -x {1.0 0.0 -1 ------- null}
+ -t 0.37164384 -s 1 -d 6 -p ack -e 40 -c 0 -i 57 -a 0 -x {1.0 0.0 26 ------- null}
- -t 0.37164384 -s 1 -d 6 -p ack -e 40 -c 0 -i 57 -a 0 -x {1.0 0.0 26 ------- null}
h -t 0.37164384 -s 1 -d 6 -p ack -e 40 -c 0 -i 57 -a 0 -x {1.0 0.0 -1 ------- null}
+ -t 0.37176912 -s 1 -d 6 -p ack -e 40 -c 0 -i 58 -a 0 -x {1.0 0.0 27 ------- null}
- -t 0.37176912 -s 1 -d 6 -p ack -e 40 -c 0 -i 58 -a 0 -x {1.0 0.0 27 ------- null}
h -t 0.37176912 -s 1 -d 6 -p ack -e 40 -c 0 -i 58 -a 0 -x {1.0 0.0 -1 ------- null}
+ -t 0.3718944 -s 1 -d 6 -p ack -e 40 -c 0 -i 59 -a 0 -x {1.0 0.0 28 ------- null}
- -t 0.3718944 -s 1 -d 6 -p ack -e 40 -c 0 -i 59 -a 0 -x {1.0 0.0 28 ------- null}
h -t 0.3718944 -s 1 -d 6 -p ack -e 40 -c 0 -i 59 -a 0 -x {1.0 0.0 -1 ------- null}
+ -t 0.37201968 -s 1 -d 6 -p ack -e 40 -c 0 -i 60 -a 0 -x {1.0 0.0 29 ------- null}
- -t 0.37201968 -s 1 -d 6 -p ack -e 40 -c 0 -i 60 -a 0 -x {1.0 0.0 29 ------- null}
h -t 0.37201968 -s 1 -d 6 -p ack -e 40 -c 0 -i 60 -a 0 -x {1.0 0.0 -1 ------- null}
+ -t 0.37214496 -s 1 -d 6 -p ack -e 40 -c 0 -i 61 -a 0 -x {1.0 0.0 30 ------- null}
- -t 0.37214496 -s 1 -d 6 -p ack -e 40 -c 0 -i 61 -a 0 -x {1.0 0.0 30 ------- null}
h -t 0.37214496 -s 1 -d 6 -p ack -e 40 -c 0 -i 61 -a 0 -x {1.0 0.0 -1 ------- null}
r -t 0.38027488 -s 6 -d 0 -p ack -e 40 -c 0 -i 46 -a 0 -x {1.0 0.0 15 ------- null}
h -t 0.38027488 -s 0 -d 6 -p tcp -e 1540 -c 0 -i 62 -a 0 -x {0.0 1.0 31 ------- null}
h -t 0.38027488 -s 0 -d 6 -p tcp -e 1540 -c 0 -i 63 -a 0 -x {0.0 1.0 32 ------- null}
r -t 0.38040016 -s 6 -d 0 -p ack -e 40 -c 0 -i 47 -a 0 -x {1.0 0.0 16 ------- null}
h -t 0.38040016 -s 0 -d 6 -p tcp -e 1540 -c 0 -i 64 -a 0 -x {0.0 1.0 33 ------- null}
h -t 0.38040016 -s 0 -d 6 -p tcp -e 1540 -c 0 -i 65 -a 0 -x {0.0 1.0 34 ------- null}
r -t 0.38052544 -s 6 -d 0 -p ack -e 40 -c 0 -i 48 -a 0 -x {1.0 0.0 17 ------- null}
h -t 0.38052544 -s 0 -d 6 -p tcp -e 1540 -c 0 -i 66 -a 0 -x {0.0 1.0 35 ------- null}
h -t 0.38052544 -s 0 -d 6 -p tcp -e 1540 -c 0 -i 67 -a 0 -x {0.0 1.0 36 ------- null}
r -t 0.38065072 -s 6 -d 0 -p ack -e 40 -c 0 -i 49 -a 0 -x {1.0 0.0 18 ------- null}
h -t 0.38065072 -s 0 -d 6 -p tcp -e 1540 -c 0 -i 68 -a 0 -x {0.0 1.0 37 ------- null}
h -t 0.38065072 -s 0 -d 6 -p tcp -e 1540 -c 0 -i 69 -a 0 -x {0.0 1.0 38 ------- null}
r -t 0.380776 -s 6 -d 0 -p ack -e 40 -c 0 -i 50 -a 0 -x {1.0 0.0 19 ------- null}
h -t 0.380776 -s 0 -d 6 -p tcp -e 1540 -c 0 -i 70 -a 0 -x {0.0 1.0 39 ------- null}
r -t 0.38090128 -s 6 -d 0 -p ack -e 40 -c 0 -i 51 -a 0 -x {1.0 0.0 20 ------- null}
h -t 0.38090128 -s 0 -d 6 -p tcp -e 1540 -c 0 -i 71 -a 0 -x {0.0 1.0 40 ------- null}
r -t 0.38102656 -s 6 -d 0 -p ack -e 40 -c 0 -i 52 -a 0 -x {1.0 0.0 21 ------- null}
h -t 0.38102656 -s 0 -d 6 -p tcp -e 1540 -c 0 -i 72 -a 0 -x {0.0 1.0 41 ------- null}
r -t 0.38115184 -s 6 -d 0 -p ack -e 40 -c 0 -i 53 -a 0 -x {1.0 0.0 22 ------- null}
h -t 0.38115184 -s 0 -d 6 -p tcp -e 1540 -c 0 -i 73 -a 0 -x {0.0 1.0 42 ------- null}
r -t 0.38127712 -s 6 -d 0 -p ack -e 40 -c 0 -i 54 -a 0 -x {1.0 0.0 23 ------- null}
h -t 0.38127712 -s 0 -d 6 -p tcp -e 1540 -c 0 -i 74 -a 0 -x {0.0 1.0 43 ------- null}
r -t 0.3814024 -s 6 -d 0 -p ack -e 40 -c 0 -i 55 -a 0 -x {1.0 0.0 24 ------- null}
h -t 0.3814024 -s 0 -d 6 -p tcp -e 1540 -c 0 -i 75 -a 0 -x {0.0 1.0 44 ------- null}
r -t 0.38152768 -s 6 -d 0 -p ack -e 40 -c 0 -i 56 -a 0 -x {1.0 0.0 25 ------- null}
h -t 0.38152768 -s 0 -d 6 -p tcp -e 1540 -c 0 -i 76 -a 0 -x {0.0 1.0 45 ------- null}
r -t 0.38165296 -s 6 -d 0 -p ack -e 40 -c 0 -i 57 -a 0 -x {1.0 0.0 26 ------- null}
h -t 0.38165296 -s 0 -d 6 -p tcp -e 1540 -c 0 -i 77 -a 0 -x {0.0 1.0 46 ------- null}
r -t 0.38177824 -s 6 -d 0 -p ack -e 40 -c 0 -i 58 -a 0 -x {1.0 0.0 27 ------- null}
h -t 0.38177824 -s 0 -d 6 -p tcp -e 1540 -c 0 -i 78 -a 0 -x {0.0 1.0 47 ------- null}
r -t 0.38190352 -s 6 -d 0 -p ack -e 40 -c 0 -i 59 -a 0 -x {1.0 0.0 28 ------- null}
h -t 0.38190352 -s 0 -d 6 -p tcp -e 1540 -c 0 -i 79 -a 0 -x {0.0 1.0 48 ------- null}
r -t 0.3820288 -s 6 -d 0 -p ack -e 40 -c 0 -i 60 -a 0 -x {1.0 0.0 29 ------- null}
h -t 0.3820288 -s 0 -d 6 -p tcp -e 1540 -c 0 -i 80 -a 0 -x {0.0 1.0 49 ------- null}
r -t 0.38215408 -s 6 -d 0 -p ack -e 40 -c 0 -i 61 -a 0 -x {1.0 0.0 30 ------- null}
h -t 0.38215408 -s 0 -d 6 -p tcp -e 1540 -c 0 -i 81 -a 0 -x {0.0 1.0 50 ------- null}
+ -t 0.39027488 -s 0 -d 6 -p tcp -e 1540 -c 0 -i 62 -a 0 -x {0.0 1.0 31 ------- null}
- -t 0.39027488 -s 0 -d 6 -p tcp -e 1540 -c 0 -i 62 -a 0 -x {0.0 1.0 31 ------- null}
h -t 0.39027488 -s 0 -d 6 -p tcp -e 1540 -c 0 -i 62 -a 0 -x {0.0 1.0 -1 ------- null}
+ -t 0.39027488 -s 0 -d 6 -p tcp -e 1540 -c 0 -i 63 -a 0 -x {0.0 1.0 32 ------- null}
+ -t 0.39040016 -s 0 -d 6 -p tcp -e 1540 -c 0 -i 64 -a 0 -x {0.0 1.0 33 ------- null}
+ -t 0.39040016 -s 0 -d 6 -p tcp -e 1540 -c 0 -i 65 -a 0 -x {0.0 1.0 34 ------- null}
- -t 0.39040016 -s 0 -d 6 -p tcp -e 1540 -c 0 -i 63 -a 0 -x {0.0 1.0 32 ------- null}
h -t 0.39040016 -s 0 -d 6 -p tcp -e 1540 -c 0 -i 63 -a 0 -x {0.0 1.0 -1 ------- null}
+ -t 0.39052544 -s 0 -d 6 -p tcp -e 1540 -c 0 -i 66 -a 0 -x {0.0 1.0 35 ------- null}
+ -t 0.39052544 -s 0 -d 6 -p tcp -e 1540 -c 0 -i 67 -a 0 -x {0.0 1.0 36 ------- null}
- -t 0.39052544 -s 0 -d 6 -p tcp -e 1540 -c 0 -i 64 -a 0 -x {0.0 1.0 33 ------- null}
h -t 0.39052544 -s 0 -d 6 -p tcp -e 1540 -c 0 -i 64 -a 0 -x {0.0 1.0 -1 ------- null}
+ -t 0.39065072 -s 0 -d 6 -p tcp -e 1540 -c 0 -i 68 -a 0 -x {0.0 1.0 37 ------- null}
+ -t 0.39065072 -s 0 -d 6 -p tcp -e 1540 -c 0 -i 69 -a 0 -x {0.0 1.0 38 ------- null}
- -t 0.39065072 -s 0 -d 6 -p tcp -e 1540 -c 0 -i 65 -a 0 -x {0.0 1.0 34 ------- null}
h -t 0.39065072 -s 0 -d 6 -p tcp -e 1540 -c 0 -i 65 -a 0 -x {0.0 1.0 -1 ------- null}
+ -t 0.390776 -s 0 -d 6 -p tcp -e 1540 -c 0 -i 70 -a 0 -x {0.0 1.0 39 ------- null}
- -t 0.390776 -s 0 -d 6 -p tcp -e 1540 -c 0 -i 66 -a 0 -x {0.0 1.0 35 ------- null}
h -t 0.390776 -s 0 -d 6 -p tcp -e 1540 -c 0 -i 66 -a 0 -x {0.0 1.0 -1 ------- null}